ITEM: TIMESTEP
0
ITEM: NUMBER OF ATOMS
38
ITEM: BOX BOUNDS pp pp pp
 -5.0 5.0 
 -5.0 5.0 
 -5.0 5.0
ITEM: ATOMS id type x y z
1 1 0.43748441 0.58787642 1.80929757
2 1 -0.63162775 0.0 -0.0
3 1 0.43398658 -0.47756867 1.46980523
4 1 0.43748441 -1.53908044 1.1182074
5 1 0.43398658 -1.54544468 0.0
6 1 0.43748441 -1.53908044 -1.1182074
7 1 1.00836113 -0.76963398 0.55917182
8 1 -0.50909615 -1.75886569 -0.56787693
9 1 -0.50909615 -1.75886569 0.56787693
10 1 -0.50909615 -1.08360244 1.49729706
11 1 -0.50909615 -0.00343634 1.8482643
12 1 -1.05160716 -0.3038652 0.93520093
13 1 -1.05160716 0.79552943 0.57798596
14 1 -0.50909615 1.08916255 1.4932574
15 1 1.00836113 0.29397402 0.90475901
16 1 0.43398658 1.25029101 0.90838959
17 1 1.58407374 -0.0 0.0
18 1 0.43748441 1.90240805 -0.0
19 1 -1.05160716 0.79552943 -0.57798596
20 1 0.43398658 -0.47756867 -1.46980523
21 1 -0.50909615 -0.00343634 -1.8482643
22 1 0.43748441 0.58787642 -1.80929757
23 1 1.00836113 0.29397402 -0.90475901
24 1 -0.09467089 -0.75247467 0.54670485
25 1 1.00836113 -0.76963398 -0.55917182
26 1 -0.50909615 -1.08360244 -1.49729706
27 1 1.00836113 0.95131992 -0.0
28 1 -1.05160716 -0.98332845 0.0
29 1 0.43398658 1.25029101 -0.90838959
30 1 0.4707451 -0.0 0.0
31 1 -0.09467089 0.28741975 0.88458703
32 1 -0.50909615 1.75674192 0.57441323
33 1 -0.50909615 1.75674192 -0.57441323
34 1 -0.50909615 1.08916255 -1.4932574
35 1 -0.09467089 0.28741975 -0.88458703
36 1 -1.05160716 -0.3038652 -0.93520093
37 1 -0.09467089 -0.75247467 -0.54670485
38 1 -0.09467089 0.93010984 -0.0
ITEM: TIMESTEP
1
ITEM: NUMBER OF ATOMS
38
ITEM: BOX BOUNDS pp pp pp
 -5.0 5.0 
 -5.0 5.0 
 -5.0 5.0
ITEM: ATOMS id type x y z
1 1 0.4382428228855133 0.5877768993377686 1.8093823194503784
2 1 -0.6316436529159546 0.00016772990056779236 -0.0003387503093108535
3 1 0.4340117871761322 -0.47742176055908203 1.469890832901001
4 1 0.43741902709007263 -1.5393611192703247 1.1178689002990723
5 1 0.4343074858188629 -1.5454689264297485 -0.0009330535540357232
6 1 0.4371369183063507 -1.5392979383468628 -1.1178516149520874
7 1 1.0086557865142822 -0.7699602246284485 0.5591197609901428
8 1 -0.5089916586875916 -1.7586627006530762 -0.5678223371505737
9 1 -0.5084238052368164 -1.7583962678909302 0.5678691267967224
10 1 -0.5087717771530151 -1.0835049152374268 1.4968193769454956
11 1 -0.5093163251876831 -0.003086957149207592 1.8480803966522217
12 1 -1.0514146089553833 -0.30415526032447815 0.9355742931365967
13 1 -1.0517293214797974 0.7957737445831299 0.5781842470169067
14 1 -0.5093379020690918 1.0889244079589844 1.4935624599456787
15 1 1.0085724592208862 0.29390251636505127 0.9051222801208496
16 1 0.43345844745635986 1.2504125833511353 0.9083777666091919
17 1 1.5839861631393433 0.00021199719049036503 -0.0003139522741548717
18 1 0.4369864761829376 1.9025349617004395 0.0001717662817100063
19 1 -1.051507830619812 0.7959146499633789 -0.5778675675392151
20 1 0.433997243642807 -0.47742122411727905 -1.469618320465088
21 1 -0.5087721943855286 -0.003614571876823902 -1.847947359085083
22 1 0.43768614530563354 0.5882712006568909 -1.8087074756622314
23 1 1.0083427429199219 0.29393213987350464 -0.9049180746078491
24 1 -0.09488502144813538 -0.7525953054428101 0.5465452671051025
25 1 1.00839102268219 -0.7695520520210266 -0.5594848990440369
26 1 -0.509132981300354 -1.0837851762771606 -1.4971948862075806
27 1 1.0084401369094849 0.9514877200126648 -0.00046475473209284246
28 1 -1.0516184568405151 -0.9834327101707458 -2.067545665340731e-06
29 1 0.43369823694229126 1.2503741979599 -0.9080972671508789
30 1 0.4709155559539795 -0.00024866723106242716 -0.00013854220742359757
31 1 -0.09468968957662582 0.28666773438453674 0.8845517635345459
32 1 -0.5094004273414612 1.7569096088409424 0.5742172002792358
33 1 -0.5094232559204102 1.7563222646713257 -0.5742677450180054
34 1 -0.509203314781189 1.0893990993499756 -1.4933735132217407
35 1 -0.0944640189409256 0.28782591223716736 -0.8842848539352417
36 1 -1.0519063472747803 -0.3039940595626831 -0.9350054860115051
37 1 -0.094581738114357 -0.7524003982543945 -0.546585202217102
38 1 -0.09503412991762161 0.9295507073402405 -0.00012006136967102066
ITEM: TIMESTEP
2
ITEM: NUMBER OF ATOMS
38
ITEM: BOX BOUNDS pp pp pp
 -5.0 5.0 
 -5.0 5.0 
 -5.0 5.0
ITEM: ATOMS id type x y z
1 1 0.4390011131763458 0.5876773595809937 1.809467077255249
2 1 -0.6316596865653992 0.00033533162786625326 -0.0006772943306714296
3 1 0.4340370297431946 -0.47727495431900024 1.4699764251708984
4 1 0.4373537003993988 -1.5396418571472168 1.117530345916748
5 1 0.4346283972263336 -1.5454930067062378 -0.0018659213092178106
6 1 0.43678945302963257 -1.539515495300293 -1.1174958944320679
7 1 1.0089503526687622 -0.7702863812446594 0.5590677261352539
8 1 -0.5088872313499451 -1.7584598064422607 -0.5677677392959595
9 1 -0.5077515244483948 -1.7579268217086792 0.5678612589836121
10 1 -0.5084474086761475 -1.0834075212478638 1.4963418245315552
11 1 -0.5095364451408386 -0.002737590577453375 1.8478964567184448
12 1 -1.0512222051620483 -0.3044452667236328 0.9359474778175354
13 1 -1.051851511001587 0.7960179448127747 0.5783824920654297
14 1 -0.5095795392990112 1.088686227798462 1.4938675165176392
15 1 1.0087836980819702 0.2938310503959656 0.9054854512214661
16 1 0.4329303205013275 1.250534176826477 0.9083659052848816
17 1 1.5838985443115234 0.00042397319339215755 -0.0006278649671003222
18 1 0.436488538980484 1.902661919593811 0.0003435190301388502
19 1 -1.0514085292816162 0.7962998151779175 -0.5777491927146912
20 1 0.4340079128742218 -0.4772738218307495 -1.4694314002990723
21 1 -0.5084483027458191 -0.0037927778903394938 -1.8476303815841675
22 1 0.43788784742355347 0.5886659622192383 -1.808117389678955
23 1 1.008324384689331 0.2938902676105499 -0.9050771594047546
24 1 -0.09509899467229843 -0.7527158856391907 0.546385645866394
25 1 1.0084210634231567 -0.7694701552391052 -0.559798002243042
26 1 -0.5091698169708252 -1.083967924118042 -1.4970927238464355
27 1 1.008519172668457 0.9516555070877075 -0.0009294099872931838
28 1 -1.0516297817230225 -0.983536958694458 -4.127166903344914e-06
29 1 0.4334099292755127 1.2504574060440063 -0.9078049659729004
30 1 0.4710860550403595 -0.0004972855094820261 -0.00027698485064320266
31 1 -0.09470845758914948 0.28591594099998474 0.8845164775848389
32 1 -0.5097047090530396 1.7570773363113403 0.5740211606025696
33 1 -0.5097503662109375 1.7559027671813965 -0.5741223096847534
34 1 -0.5093104839324951 1.0896356105804443 -1.4934896230697632
35 1 -0.09425722062587738 0.2882319986820221 -0.88398277759552
36 1 -1.0522055625915527 -0.3041229248046875 -0.9348101019859314
37 1 -0.09449262917041779 -0.7523260712623596 -0.5464656352996826
38 1 -0.0953972339630127 0.9289917945861816 -0.0002399716613581404
ITEM: TIMESTEP
3
ITEM: NUMBER OF ATOMS
38
ITEM: BOX BOUNDS pp pp pp
 -5.0 5.0 
 -5.0 5.0 
 -5.0 5.0
ITEM: ATOMS id type x y z
1 1 0.43975919485092163 0.5875778794288635 1.8095518350601196
2 1 -0.6316759586334229 0.0005026758881285787 -0.0010154267074540257
3 1 0.43406230211257935 -0.4771283268928528 1.470062017440796
4 1 0.4372884929180145 -1.5399224758148193 1.1171917915344238
5 1 0.4349493086338043 -1.545517086982727 -0.0027984161861240864
6 1 0.436442106962204 -1.5397330522537231 -1.1171404123306274
7 1 1.0092447996139526 -0.7706124782562256 0.5590156316757202
8 1 -0.5087828636169434 -1.7582569122314453 -0.5677130818367004
9 1 -0.5070794224739075 -1.7574576139450073 0.5678532719612122
10 1 -0.5081230998039246 -1.0833101272583008 1.4958645105361938
11 1 -0.5097564458847046 -0.0023882570676505566 1.847712755203247
12 1 -1.0510298013687134 -0.3047351539134979 0.9363203644752502
13 1 -1.051973581314087 0.7962620258331299 0.5785807371139526
14 1 -0.5098210573196411 1.08844792842865 1.49417245388031
15 1 1.0089949369430542 0.29375961422920227 0.9058483242988586
16 1 0.43240222334861755 1.2506555318832397 0.9083539843559265
17 1 1.5838109254837036 0.0006359067629091442 -0.0009416985558345914
18 1 0.4359906315803528 1.902788758277893 0.0005152445519343019
19 1 -1.05130934715271 0.7966848611831665 -0.577630877494812
20 1 0.4340185523033142 -0.47712647914886475 -1.4692444801330566
21 1 -0.5081244111061096 -0.0039709326811134815 -1.847313404083252
22 1 0.438089519739151 0.5890606641769409 -1.8075275421142578
23 1 1.0083061456680298 0.29384845495224 -0.9052361845970154
24 1 -0.09531266987323761 -0.7528364062309265 0.546225905418396
25 1 1.0084511041641235 -0.7693882584571838 -0.5601111054420471
26 1 -0.5092066526412964 -1.0841505527496338 -1.4969905614852905
27 1 1.0085980892181396 0.9518232345581055 -0.0013938670745119452
28 1 -1.0516411066055298 -0.9836410880088806 -6.1708997236564755e-06
29 1 0.4331216812133789 1.2505407333374023 -0.9075127243995667
30 1 0.4712566137313843 -0.0007458057953044772 -0.0004152286855969578
31 1 -0.09472716599702835 0.28516456484794617 0.8844812512397766
32 1 -0.5100089907646179 1.7572449445724487 0.5738251209259033
33 1 -0.5100774168968201 1.7554833889007568 -0.5739768743515015
34 1 -0.5094176530838013 1.0898720026016235 -1.4936057329177856
35 1 -0.0940505638718605 0.2886378765106201 -0.8836809396743774
36 1 -1.0525046586990356 -0.3042517900466919 -0.9346147775650024
37 1 -0.09440361708402634 -0.7522516846656799 -0.5463462471961975
38 1 -0.09576008468866348 0.9284332990646362 -0.0003595789021346718
ITEM: TIMESTEP
4
ITEM: NUMBER OF ATOMS
38
ITEM: BOX BOUNDS pp pp pp
 -5.0 5.0 
 -5.0 5.0 
 -5.0 5.0
ITEM: ATOMS id type x y z
1 1 0.44051694869995117 0.5874784588813782 1.8096364736557007
2 1 -0.6316925287246704 0.0006696324562653899 -0.0013529430143535137
3 1 0.4340876042842865 -0.4769819676876068 1.4701474905014038
4 1 0.4372234642505646 -1.5402029752731323 1.1168532371520996
5 1 0.4352702498435974 -1.5455411672592163 -0.0037303497083485126
6 1 0.43609490990638733 -1.5399504899978638 -1.1167852878570557
7 1 1.0095391273498535 -0.7709384560585022 0.5589635372161865
8 1 -0.508678674697876 -1.7580541372299194 -0.5676584243774414
9 1 -0.5064075589179993 -1.756988763809204 0.5678451657295227
10 1 -0.5077988505363464 -1.0832128524780273 1.4953875541687012
11 1 -0.509976327419281 -0.00203897338360548 1.8475291728973389
12 1 -1.050837516784668 -0.3050248920917511 0.9366928339004517
13 1 -1.052095651626587 0.796505868434906 0.578778862953186
14 1 -0.5100623965263367 1.088209629058838 1.4944772720336914
15 1 1.0092061758041382 0.29368823766708374 0.9062107801437378
16 1 0.43187415599823 1.2507765293121338 0.9083419442176819
17 1 1.5837233066558838 0.0008477766532450914 -0.0012554136337712407
18 1 0.43549278378486633 1.9029154777526855 0.0006869289791211486
19 1 -1.0512104034423828 0.7970697283744812 -0.5775126814842224
20 1 0.43402913212776184 -0.47697922587394714 -1.4690576791763306
21 1 -0.5078005790710449 -0.00414901040494442 -1.8469963073730469
22 1 0.43829110264778137 0.5894553661346436 -1.80693781375885
23 1 1.008288025856018 0.29380670189857483 -0.9053951501846313
24 1 -0.09552589803934097 -0.7529568076133728 0.5460660457611084
25 1 1.0084812641143799 -0.7693064212799072 -0.5604241490364075
26 1 -0.5092434883117676 -1.0843331813812256 -1.496888279914856
27 1 1.0086767673492432 0.9519909024238586 -0.0018580281175673008
28 1 -1.051652431488037 -0.9837450981140137 -8.190839253074955e-06
29 1 0.4328334927558899 1.250624179840088 -0.9072205424308777
30 1 0.47142723202705383 -0.0009941793978214264 -0.000553174817468971
31 1 -0.09474579244852066 0.28441381454467773 0.8844460248947144
32 1 -0.5103132724761963 1.7574124336242676 0.5736291408538818
33 1 -0.5104044079780579 1.7550642490386963 -0.5738314390182495
34 1 -0.5095248222351074 1.0901083946228027 -1.493721842765808
35 1 -0.09384412318468094 0.2890434265136719 -0.8833795189857483
36 1 -1.052803635597229 -0.3043806254863739 -0.9344196319580078
37 1 -0.09431475400924683 -0.7521772384643555 -0.5462270379066467
38 1 -0.09612254053354263 0.9278753995895386 -0.0004787302459590137
ITEM: TIMESTEP
5
ITEM: NUMBER OF ATOMS
38
ITEM: BOX BOUNDS pp pp pp
 -5.0 5.0 
 -5.0 5.0 
 -5.0 5.0
ITEM: ATOMS id type x y z
1 1 0.4412742555141449 0.5873790979385376 1.8097209930419922
2 1 -0.6317095756530762 0.0008360701613128185 -0.001689639873802662
3 1 0.4341129660606384 -0.4768359363079071 1.4702328443527222
4 1 0.4371586740016937 -1.5404833555221558 1.1165146827697754
5 1 0.4355911910533905 -1.5455652475357056 -0.004661531653255224
6 1 0.435747891664505 -1.5401678085327148 -1.1164305210113525
7 1 1.0098332166671753 -0.7712642550468445 0.5589113831520081
8 1 -0.5085746645927429 -1.7578516006469727 -0.5676037669181824
9 1 -0.5057359933853149 -1.756520390510559 0.5678368806838989
10 1 -0.5074746608734131 -1.0831156969070435 1.4949109554290771
11 1 -0.5101960301399231 -0.0016897571040317416 1.8473458290100098
12 1 -1.050645351409912 -0.30531439185142517 0.9370647072792053
13 1 -1.0522176027297974 0.7967493534088135 0.5789769291877747
14 1 -0.5103034377098083 1.0879712104797363 1.4947818517684937
15 1 1.0094172954559326 0.2936169505119324 0.906572699546814
16 1 0.4313461482524872 1.2508971691131592 0.9083297848701477
17 1 1.583635687828064 0.0010595617350190878 -0.0015689709689468145
18 1 0.43499496579170227 1.9030420780181885 0.000858558458276093
19 1 -1.0511116981506348 0.797454297542572 -0.5773946046829224
20 1 0.4340396523475647 -0.4768321216106415 -1.4688708782196045
21 1 -0.507476806640625 -0.004326985217630863 -1.8466792106628418
22 1 0.4384925961494446 0.5898500084877014 -1.806348443031311
23 1 1.008270025253296 0.2937650680541992 -0.9055539965629578
24 1 -0.09573853015899658 -0.7530770301818848 0.5459059476852417
25 1 1.0085116624832153 -0.7692246437072754 -0.560737133026123
26 1 -0.5092803239822388 -1.0845156908035278 -1.4967859983444214
27 1 1.008755087852478 0.952158510684967 -0.002321796026080847
28 1 -1.051663875579834 -0.9838489294052124 -1.0179010132560506e-05
29 1 0.43254542350769043 1.2507078647613525 -0.9069284200668335
30 1 0.47159796953201294 -0.0012423573061823845 -0.0006907247006893158
31 1 -0.09476429969072342 0.28366389870643616 0.8844108581542969
32 1 -0.5106175541877747 1.7575798034667969 0.5734332203865051
33 1 -0.5107313394546509 1.7546454668045044 -0.5736860036849976
34 1 -0.5096319317817688 1.0903446674346924 -1.4938379526138306
35 1 -0.09363796561956406 0.2894485592842102 -0.8830786347389221
36 1 -1.0531024932861328 -0.3045094311237335 -0.9342246651649475
37 1 -0.09422608464956284 -0.7521026730537415 -0.5461081266403198
38 1 -0.0964844822883606 0.9273183345794678 -0.0005972719518467784
ITEM: TIMESTEP
6
ITEM: NUMBER OF ATOMS
38
ITEM: BOX BOUNDS pp pp pp
 -5.0 5.0 
 -5.0 5.0 
 -5.0 5.0
ITEM: ATOMS id type x y z
1 1 0.44203102588653564 0.5872798562049866 1.8098053932189941
2 1 -0.6317271590232849 0.0010018571047112346 -0.002025315538048744
3 1 0.43413838744163513 -0.4766903519630432 1.470318078994751
4 1 0.43709418177604675 -1.5407634973526 1.1161761283874512
5 1 0.4359121322631836 -1.5455892086029053 -0.005591771099716425
6 1 0.4354011118412018 -1.5403850078582764 -1.1160763502120972
7 1 1.010127067565918 -0.7715898156166077 0.55885910987854
8 1 -0.508470892906189 -1.7576491832733154 -0.5675490498542786
9 1 -0.505064845085144 -1.7560524940490723 0.5678284168243408
10 1 -0.5071505904197693 -1.0830186605453491 1.4944348335266113
11 1 -0.5104154944419861 -0.0013406258076429367 1.8471628427505493
12 1 -1.0504534244537354 -0.30560362339019775 0.9374358654022217
13 1 -1.0523393154144287 0.7969924211502075 0.5791748762130737
14 1 -0.5105441808700562 1.0877326726913452 1.4950863122940063
15 1 1.0096282958984375 0.29354575276374817 0.9069339036941528
16 1 0.43081820011138916 1.2510173320770264 0.908317506313324
17 1 1.5835481882095337 0.0012712407624348998 -0.0018823312129825354
18 1 0.43449723720550537 1.9031684398651123 0.001030118903145194
19 1 -1.0510133504867554 0.797838568687439 -0.5772766470909119
20 1 0.4340501129627228 -0.47668516635894775 -1.468684196472168
21 1 -0.5071530938148499 -0.004504831042140722 -1.8463619947433472
22 1 0.43869397044181824 0.5902445912361145 -1.805759310722351
23 1 1.0082522630691528 0.29372355341911316 -0.9057127833366394
24 1 -0.0959504172205925 -0.7531970739364624 0.5457455515861511
25 1 1.0085421800613403 -0.7691429257392883 -0.5610500574111938
26 1 -0.50931715965271 -1.0846980810165405 -1.4966835975646973
27 1 1.0088330507278442 0.9523259997367859 -0.002785074757412076
28 1 -1.0516753196716309 -0.983952522277832 -1.2127507034165319e-05
29 1 0.4322575032711029 1.2507917881011963 -0.9066364169120789
30 1 0.4717688262462616 -0.0014902908587828279 -0.0008277802844531834
31 1 -0.09478266537189484 0.28291505575180054 0.8843757510185242
32 1 -0.510921835899353 1.757746934890747 0.5732373595237732
33 1 -0.5110581517219543 1.7542270421981812 -0.5735406279563904
34 1 -0.5097389817237854 1.090580701828003 -1.4939539432525635
35 1 -0.09343215823173523 0.28985318541526794 -0.8827784061431885
36 1 -1.0534011125564575 -0.30463817715644836 -0.9340299367904663
37 1 -0.09413766115903854 -0.7520279288291931 -0.5459896326065063
38 1 -0.09684576839208603 0.9267623424530029 -0.0007150495075620711
ITEM: TIMESTEP
7
ITEM: NUMBER OF ATOMS
38
ITEM: BOX BOUNDS pp pp pp
 -5.0 5.0 
 -5.0 5.0 
 -5.0 5.0
ITEM: ATOMS id type x y z
1 1 0.44278714060783386 0.5871807336807251 1.8098896741867065
2 1 -0.631745457649231 0.0011668606894090772 -0.002359769307076931
3 1 0.434163898229599 -0.4765453040599823 1.4704031944274902
4 1 0.43703004717826843 -1.5410434007644653 1.1158374547958374
5 1 0.4362330734729767 -1.545613169670105 -0.006520875263959169
6 1 0.43505463004112244 -1.5406020879745483 -1.1157227754592896
7 1 1.010420560836792 -0.7719151377677917 0.5588067770004272
8 1 -0.5083674192428589 -1.7574470043182373 -0.56749427318573
9 1 -0.5043941736221313 -1.7555853128433228 0.5678196549415588
10 1 -0.5068265795707703 -1.0829217433929443 1.4939593076705933
11 1 -0.51063472032547 -0.000991597305983305 1.8469802141189575
12 1 -1.0502617359161377 -0.3058924973011017 0.9378061294555664
13 1 -1.0524609088897705 0.7972350120544434 0.5793727040290833
14 1 -0.5107845664024353 1.087493896484375 1.4953904151916504
15 1 1.0098391771316528 0.29347464442253113 0.9072943329811096
16 1 0.4302903115749359 1.2511368989944458 0.9083050489425659
17 1 1.5834606885910034 0.001482792547903955 -0.0021954551339149475
18 1 0.43399956822395325 1.903294563293457 0.0012015961110591888
19 1 -1.0509154796600342 0.7982224225997925 -0.5771589279174805
20 1 0.4340604841709137 -0.47653841972351074 -1.4684975147247314
21 1 -0.5068294405937195 -0.004682522267103195 -1.846044659614563
22 1 0.43889519572257996 0.5906391143798828 -1.8051706552505493
23 1 1.0082346200942993 0.29368218779563904 -0.9058714509010315
24 1 -0.09616141021251678 -0.7533168792724609 0.5455848574638367
25 1 1.0085729360580444 -0.7690613269805908 -0.5613629221916199
26 1 -0.5093539953231812 -1.0848802328109741 -1.4965811967849731
27 1 1.0089106559753418 0.9524933099746704 -0.003247769083827734
28 1 -1.0516867637634277 -0.9840558767318726 -1.4028420991962776e-05
29 1 0.4319697320461273 1.2508759498596191 -0.9063445329666138
30 1 0.4719398319721222 -0.0017379313940182328 -0.0009642440127208829
31 1 -0.09480085968971252 0.2821674644947052 0.884340763092041
32 1 -0.5112261176109314 1.7579138278961182 0.5730416178703308
33 1 -0.5113848447799683 1.7538090944290161 -0.5733952522277832
34 1 -0.509846031665802 1.090816617012024 -1.4940699338912964
35 1 -0.09322676807641983 0.29025715589523315 -0.8824789524078369
36 1 -1.0536994934082031 -0.3047668933868408 -0.933835506439209
37 1 -0.09404952824115753 -0.7519530057907104 -0.5458715558052063
38 1 -0.09720627218484879 0.9262076020240784 -0.0008319076732732356
ITEM: TIMESTEP
8
ITEM: NUMBER OF ATOMS
38
ITEM: BOX BOUNDS pp pp pp
 -5.0 5.0 
 -5.0 5.0 
 -5.0 5.0
ITEM: ATOMS id type x y z
1 1 0.44354248046875 0.5870817303657532 1.8099738359451294
2 1 -0.6317645311355591 0.0013309477362781763 -0.0026928018778562546
3 1 0.43418949842453003 -0.47640088200569153 1.47048819065094
4 1 0.4369663596153259 -1.541322946548462 1.1154987812042236
5 1 0.4365540146827698 -1.5456370115280151 -0.00744864996522665
6 1 0.43470847606658936 -1.5408190488815308 -1.1153700351715088
7 1 1.0107135772705078 -0.7722402215003967 0.5587543845176697
8 1 -0.5082643032073975 -1.7572450637817383 -0.5674394965171814
9 1 -0.5037240386009216 -1.7551189661026 0.567810595035553
10 1 -0.5065027475357056 -1.0828250646591187 1.4934844970703125
11 1 -0.51085364818573 -0.000642690050881356 1.846798062324524
12 1 -1.0500702857971191 -0.3061809837818146 0.93817538022995
13 1 -1.0525822639465332 0.7974770665168762 0.5795703530311584
14 1 -0.5110244750976562 1.0872550010681152 1.4956942796707153
15 1 1.0100499391555786 0.29340365529060364 0.90765380859375
16 1 0.42976251244544983 1.251255750656128 0.9082923531532288
17 1 1.5833731889724731 0.0016941959038376808 -0.002508303616195917
18 1 0.4335019886493683 1.9034204483032227 0.0013729759957641363
19 1 -1.0508180856704712 0.7986058592796326 -0.5770413875579834
20 1 0.43407073616981506 -0.47639188170433044 -1.4683109521865845
21 1 -0.5065059065818787 -0.004860032815486193 -1.8457272052764893
22 1 0.43909624218940735 0.5910335779190063 -1.8045824766159058
23 1 1.0082173347473145 0.29364097118377686 -0.9060299396514893
24 1 -0.0963713601231575 -0.7534363865852356 0.5454237461090088
25 1 1.0086040496826172 -0.7689797878265381 -0.5616757273674011
26 1 -0.5093908309936523 -1.0850622653961182 -1.4964786767959595
27 1 1.0089877843856812 0.9526605010032654 -0.0037097844760864973
28 1 -1.0516982078552246 -0.9841589331626892 -1.587382757861633e-05
29 1 0.43168216943740845 1.2509604692459106 -0.9060527682304382
30 1 0.4721110165119171 -0.001985230017453432 -0.0011000189697369933
31 1 -0.0948188528418541 0.28142133355140686 0.8843058347702026
32 1 -0.5115303993225098 1.7580804824829102 0.5728459358215332
33 1 -0.5117113590240479 1.7533916234970093 -0.5732499361038208
34 1 -0.5099530220031738 1.0910522937774658 -1.4941858053207397
35 1 -0.09302186965942383 0.29066041111946106 -0.882180392742157
36 1 -1.0539976358413696 -0.3048955500125885 -0.9336414337158203
37 1 -0.09396173804998398 -0.7518779039382935 -0.5457540154457092
38 1 -0.09756585955619812 0.9256542921066284 -0.0009476906852796674
ITEM: TIMESTEP
9
ITEM: NUMBER OF ATOMS
38
ITEM: BOX BOUNDS pp pp pp
 -5.0 5.0 
 -5.0 5.0 
 -5.0 5.0
ITEM: ATOMS id type x y z
1 1 0.4442969560623169 0.5869829058647156 1.8100577592849731
2 1 -0.6317844986915588 0.001493984367698431 -0.0030242158100008965
3 1 0.4342152178287506 -0.4762571454048157 1.4705729484558105
4 1 0.4369031488895416 -1.5416021347045898 1.1151601076126099
5 1 0.43687498569488525 -1.5456608533859253 -0.008374900557100773
6 1 0.4343627393245697 -1.541035771369934 -1.1150181293487549
7 1 1.011006236076355 -0.7725649476051331 0.5587018728256226
8 1 -0.5081615447998047 -1.757043480873108 -0.567384660243988
9 1 -0.5030545592308044 -1.7546534538269043 0.5678011775016785
10 1 -0.5061790347099304 -1.082728624343872 1.4930105209350586
11 1 -0.5110722184181213 -0.00029392269789241254 1.8466163873672485
12 1 -1.0498790740966797 -0.30646902322769165 0.9385434985160828
13 1 -1.0527033805847168 0.7977184653282166 0.5797678232192993
14 1 -0.511263906955719 1.0870158672332764 1.4959977865219116
15 1 1.0102605819702148 0.2933328151702881 0.9080122113227844
16 1 0.4292348325252533 1.2513738870620728 0.9082794189453125
17 1 1.5832858085632324 0.0019054297590628266 -0.0028208380099385977
18 1 0.4330045282840729 1.9035460948944092 0.001544244005344808
19 1 -1.050721287727356 0.7989887595176697 -0.5769240856170654
20 1 0.4340808689594269 -0.47624561190605164 -1.468124508857727
21 1 -0.5061824321746826 -0.005037336610257626 -1.845409631729126
22 1 0.439297080039978 0.5914279222488403 -1.80399489402771
23 1 1.0082002878189087 0.2935999631881714 -0.9061882495880127
24 1 -0.09658011794090271 -0.7535555362701416 0.5452622175216675
25 1 1.008635401725769 -0.7688983678817749 -0.5619884133338928
26 1 -0.5094276666641235 -1.085244059562683 -1.4963760375976562
27 1 1.0090643167495728 0.952827513217926 -0.004171027336269617
28 1 -1.051709771156311 -0.9842616319656372 -1.76558387465775e-05
29 1 0.4313948154449463 1.2510453462600708 -0.905761182308197
30 1 0.47228237986564636 -0.002232138067483902 -0.0012350088218227029
31 1 -0.09483661502599716 0.28067687153816223 0.884270966053009
32 1 -0.5118347406387329 1.7582467794418335 0.5726503729820251
33 1 -0.5120376944541931 1.7529748678207397 -0.5731046199798584
34 1 -0.5100599527359009 1.0912877321243286 -1.494301676750183
35 1 -0.0928175300359726 0.2910628020763397 -0.881882905960083
36 1 -1.0542954206466675 -0.3050241470336914 -0.9334477186203003
37 1 -0.09387434273958206 -0.7518025636672974 -0.5456370711326599
38 1 -0.09792440384626389 0.925102710723877 -0.001062242197804153
ITEM: TIMESTEP
10
ITEM: NUMBER OF ATOMS
38
ITEM: BOX BOUNDS pp pp pp
 -5.0 5.0 
 -5.0 5.0 
 -5.0 5.0
ITEM: ATOMS id type x y z
1 1 0.4450504779815674 0.5868842601776123 1.8101415634155273
2 1 -0.6318054795265198 0.0016558363568037748 -0.0033538152929395437
3 1 0.43424108624458313 -0.4761142134666443 1.470657467842102
4 1 0.4368405044078827 -1.5418809652328491 1.114821434020996
5 1 0.43719595670700073 -1.545684576034546 -0.009299430064857006
6 1 0.4340174198150635 -1.5412522554397583 -1.114667296409607
7 1 1.0112982988357544 -0.7728893160820007 0.5586492419242859
8 1 -0.5080592632293701 -1.7568422555923462 -0.5673297047615051
9 1 -0.5023857951164246 -1.7541890144348145 0.5677913427352905
10 1 -0.5058555006980896 -1.0826324224472046 1.492537498474121
11 1 -0.5112903714179993 5.468580638989806e-05 1.846435308456421
12 1 -1.0496882200241089 -0.30675655603408813 0.9389103055000305
13 1 -1.0528242588043213 0.7979591488838196 0.5799651145935059
14 1 -0.511502742767334 1.0867764949798584 1.4963008165359497
15 1 1.010470986366272 0.2932621240615845 0.9083693623542786
16 1 0.4287072420120239 1.2514910697937012 0.9082661867141724
17 1 1.5831984281539917 0.00211647292599082 -0.0031330191995948553
18 1 0.432507187128067 1.903671383857727 0.0017153857043012977
19 1 -1.0506250858306885 0.799371063709259 -0.5768070816993713
20 1 0.43409088253974915 -0.4760996103286743 -1.4679381847381592
21 1 -0.5058590769767761 -0.005214408040046692 -1.8450919389724731
22 1 0.4394976794719696 0.5918221473693848 -1.803407907485962
23 1 1.0081835985183716 0.29355916380882263 -0.9063463807106018
24 1 -0.09678754210472107 -0.7536742687225342 0.545100212097168
25 1 1.0086671113967896 -0.768817126750946 -0.562300980091095
26 1 -0.5094645023345947 -1.085425615310669 -1.4962732791900635
27 1 1.0091402530670166 0.9529943466186523 -0.004631404764950275
28 1 -1.0517213344573975 -0.9843639135360718 -1.9366520064068027e-05
29 1 0.4311077296733856 1.2511305809020996 -0.9054697751998901
30 1 0.4724539816379547 -0.0024786072317510843 -0.0013691178755834699
31 1 -0.09485412389039993 0.279934287071228 0.884236216545105
32 1 -0.512139081954956 1.7584127187728882 0.5724549293518066
33 1 -0.5123637914657593 1.7525588274002075 -0.5729593634605408
34 1 -0.5101668238639832 1.0915229320526123 -1.494417428970337
35 1 -0.0926138162612915 0.291464239358902 -0.8815866112709045
36 1 -1.0545929670333862 -0.30515268445014954 -0.9332544803619385
37 1 -0.09378738701343536 -0.7517269849777222 -0.5455207824707031
38 1 -0.09828176349401474 0.9245529770851135 -0.0011754054576158524
ITEM: TIMESTEP
11
ITEM: NUMBER OF ATOMS
38
ITEM: BOX BOUNDS pp pp pp
 -5.0 5.0 
 -5.0 5.0 
 -5.0 5.0
ITEM: ATOMS id type x y z
1 1 0.4458029270172119 0.5867858529090881 1.8102251291275024
2 1 -0.6318275928497314 0.0018163693603128195 -0.003681406145915389
3 1 0.4342670738697052 -0.47597214579582214 1.4707417488098145
4 1 0.4367785155773163 -1.5421594381332397 1.1144827604293823
5 1 0.4375169277191162 -1.5457082986831665 -0.010222040116786957
6 1 0.43367260694503784 -1.5414685010910034 -1.114317536354065
7 1 1.0115898847579956 -0.773213267326355 0.5585964322090149
8 1 -0.5079574584960938 -1.7566413879394531 -0.5672746896743774
9 1 -0.5017178654670715 -1.7537257671356201 0.5677810907363892
10 1 -0.5055321455001831 -1.0825364589691162 1.4920655488967896
11 1 -0.5115081071853638 0.00040311604971066117 1.8462549448013306
12 1 -1.0494977235794067 -0.30704355239868164 0.9392756819725037
13 1 -1.0529448986053467 0.7981990575790405 0.5801621675491333
14 1 -0.5117409229278564 1.0865368843078613 1.4966034889221191
15 1 1.0106812715530396 0.2931915819644928 0.9087251424789429
16 1 0.4281797707080841 1.2516072988510132 0.9082526564598083
17 1 1.5831111669540405 0.00232730433344841 -0.0034448085352778435
18 1 0.4320099949836731 1.9037963151931763 0.0018863866571336985
19 1 -1.0505295991897583 0.7997527122497559 -0.5766903758049011
20 1 0.4341007471084595 -0.47595393657684326 -1.4677519798278809
21 1 -0.505535900592804 -0.005391221027821302 -1.8447740077972412
22 1 0.4396980404853821 0.5922162532806396 -1.8028216361999512
23 1 1.0081672668457031 0.293518602848053 -0.9065042734146118
24 1 -0.09699347615242004 -0.7537925839424133 0.5449376106262207
25 1 1.0086992979049683 -0.7687360048294067 -0.5626134276390076
26 1 -0.5095013380050659 -1.0856068134307861 -1.4961704015731812
27 1 1.0092154741287231 0.9531609416007996 -0.005090825259685516
28 1 -1.0517330169677734 -0.9844657778739929 -2.0998013496864587e-05
29 1 0.43082091212272644 1.2512162923812866 -0.9051785469055176
30 1 0.47262582182884216 -0.002724588615819812 -0.0015022512525320053
31 1 -0.09487134963274002 0.27919378876686096 0.8842015266418457
32 1 -0.5124434232711792 1.7585783004760742 0.5722596049308777
33 1 -0.5126896500587463 1.7521436214447021 -0.5728141665458679
34 1 -0.5102735757827759 1.0917577743530273 -1.4945331811904907
35 1 -0.09241079539060593 0.2918646037578583 -0.8812916278839111
36 1 -1.0548900365829468 -0.3052811622619629 -0.9330617189407349
37 1 -0.09370091557502747 -0.7516511082649231 -0.5454052686691284
38 1 -0.09863781183958054 0.924005389213562 -0.0012870233040302992
ITEM: TIMESTEP
12
ITEM: NUMBER OF ATOMS
38
ITEM: BOX BOUNDS pp pp pp
 -5.0 5.0 
 -5.0 5.0 
 -5.0 5.0
ITEM: ATOMS id type x y z
1 1 0.4465542137622833 0.5866876840591431 1.8103084564208984