ITEM: TIMESTEP
0
ITEM: NUMBER OF ATOMS
38
ITEM: BOX BOUNDS pp pp pp
 -5.0 5.0 
 -5.0 5.0 
 -5.0 5.0
ITEM: ATOMS id type x y z
1 1 0.43748441 0.58787642 1.80929757
2 1 -0.63162775 0.0 -0.0
3 1 0.43398658 -0.47756867 1.46980523
4 1 0.43748441 -1.53908044 1.1182074
5 1 0.43398658 -1.54544468 0.0
6 1 0.43748441 -1.53908044 -1.1182074
7 1 1.00836113 -0.76963398 0.55917182
8 1 -0.50909615 -1.75886569 -0.56787693
9 1 -0.50909615 -1.75886569 0.56787693
10 1 -0.50909615 -1.08360244 1.49729706
11 1 -0.50909615 -0.00343634 1.8482643
12 1 -1.05160716 -0.3038652 0.93520093
13 1 -1.05160716 0.79552943 0.57798596
14 1 -0.50909615 1.08916255 1.4932574
15 1 1.00836113 0.29397402 0.90475901
16 1 0.43398658 1.25029101 0.90838959
17 1 1.58407374 -0.0 0.0
18 1 0.43748441 1.90240805 -0.0
19 1 -1.05160716 0.79552943 -0.57798596
20 1 0.43398658 -0.47756867 -1.46980523
21 1 -0.50909615 -0.00343634 -1.8482643
22 1 0.43748441 0.58787642 -1.80929757
23 1 1.00836113 0.29397402 -0.90475901
24 1 -0.09467089 -0.75247467 0.54670485
25 1 1.00836113 -0.76963398 -0.55917182
26 1 -0.50909615 -1.08360244 -1.49729706
27 1 1.00836113 0.95131992 -0.0
28 1 -1.05160716 -0.98332845 0.0
29 1 0.43398658 1.25029101 -0.90838959
30 1 0.4707451 -0.0 0.0
31 1 -0.09467089 0.28741975 0.88458703
32 1 -0.50909615 1.75674192 0.57441323
33 1 -0.50909615 1.75674192 -0.57441323
34 1 -0.50909615 1.08916255 -1.4932574
35 1 -0.09467089 0.28741975 -0.88458703
36 1 -1.05160716 -0.3038652 -0.93520093
37 1 -0.09467089 -0.75247467 -0.54670485
38 1 -0.09467089 0.93010984 -0.0
