ITEM: TIMESTEP
0
ITEM: NUMBER OF ATOMS
38
ITEM: BOX BOUNDS pp pp pp
 -5.0 5.0 
 -5.0 5.0 
 -5.0 5.0
ITEM: ATOMS id type x y z
1 1 0.19476799 0.33063656 1.70692721
2 1 -0.64107328 0.19785932 0.38980123
3 1 0.70571044 -0.62069076 1.4756503
4 1 0.14980353 -1.44249852 0.97856853
5 1 0.3759933 -1.70723731 -0.06944398
6 1 0.09173631 -1.01448879 -0.88484104
7 1 0.92762431 -0.88361233 0.42341408
8 1 -0.68812463 -1.57370144 -0.33288442
9 1 -0.9143187 -1.30897855 0.71512905
10 1 -0.35959423 -0.48631676 1.20611338
11 1 -0.87453595 0.46481405 1.44221035
12 1 -1.42773526 -0.35300345 0.94752707
13 1 -1.7124296 0.33363525 0.13079597
14 1 -1.15922045 1.15145353 0.62547779
15 1 1.48514068 -0.06762738 0.922306
16 1 0.97420851 0.8837023 1.15360696
17 1 1.71242812 -0.33363123 -0.13082073
18 1 0.68812571 1.57369048 0.33290325
19 1 -0.92761768 0.88361236 -0.42341735
20 1 0.87453197 -0.46481272 -1.4422107
21 1 -0.19477654 -0.33063585 -1.70691793
22 1 0.35958916 0.48632959 -1.20611528
23 1 1.42772613 0.35302654 -0.9475378
24 1 -0.13339989 -0.7474446 0.160002
25 1 1.15921743 -1.15146151 -0.62547463
26 1 -0.97420771 -0.88372618 -1.15360198
27 1 1.19547445 0.61718838 0.10213991
28 1 -1.19548049 -0.61719231 -0.10214494
29 1 0.91431593 1.30899754 -0.71512106
30 1 0.64107025 -0.19786334 -0.38980954
31 1 0.41629684 0.06517333 0.65154909
32 1 -0.09173521 1.01446946 0.88484006
33 1 -0.37599203 1.70723003 0.06946343
34 1 -0.14980464 1.44251683 -0.97855531
35 1 -0.70570284 0.62070735 -1.47565232
36 1 -1.48511961 0.06761936 -0.92232311
37 1 -0.41629428 -0.06517987 -0.65155021
38 1 0.13340196 0.74744063 -0.16000333
ITEM: TIMESTEP
1
ITEM: NUMBER OF ATOMS
38
ITEM: BOX BOUNDS pp pp pp
 -5.0 5.0 
 -5.0 5.0 
 -5.0 5.0
ITEM: ATOMS id type x y z
1 1 0.19552640616893768 0.33053702116012573 1.7070119380950928
2 1 -0.6410892009735107 0.19802704453468323 0.3894624710083008
3 1 0.7057356238365173 -0.6205438375473022 1.4757359027862549
4 1 0.1497381329536438 -1.442779302597046 0.9782300591468811
5 1 0.3763142228126526 -1.707261562347412 -0.07037702947854996
6 1 0.09138880670070648 -1.0147063732147217 -0.8844852447509766
7 1 0.9279189705848694 -0.8839385509490967 0.42336204648017883
8 1 -0.6880201697349548 -1.5734983682632446 -0.3328298330307007
9 1 -0.9136463403701782 -1.308509111404419 0.7151212692260742
10 1 -0.3592698574066162 -0.4862193167209625 1.205635666847229
11 1 -0.8747561573982239 0.4651634097099304 1.4420263767242432
12 1 -1.4275426864624023 -0.3532935082912445 0.9479004144668579
13 1 -1.7125518321990967 0.3338795304298401 0.13099424540996552
14 1 -1.1594622135162354 1.1512153148651123 0.6257829070091248
15 1 1.4853520393371582 -0.06769885867834091 0.9226692914962769
16 1 0.9736803770065308 0.8838239312171936 1.153595209121704
17 1 1.7123404741287231 -0.33341923356056213 -0.13113468885421753
18 1 0.6876277923583984 1.573817491531372 0.33307501673698425
19 1 -0.927518367767334 0.8839975595474243 -0.4232989549636841
20 1 0.8745426535606384 -0.4646652936935425 -1.442023754119873
21 1 -0.19445261359214783 -0.33081406354904175 -1.7066009044647217
22 1 0.3597908914089203 0.4867243468761444 -1.2055251598358154
23 1 1.4277077913284302 0.3529846668243408 -0.94769686460495
24 1 -0.13361401855945587 -0.7475652694702148 0.15984243154525757
25 1 1.1592473983764648 -1.1513795852661133 -0.6257877349853516
26 1 -0.9742445349693298 -0.8839089274406433 -1.1534998416900635
27 1 1.1955535411834717 0.6173561811447144 0.10167516022920609
28 1 -1.1954917907714844 -0.617296576499939 -0.10214701294898987
29 1 0.9140275716781616 1.309080719947815 -0.7148287296295166
30 1 0.6412407159805298 -0.19811201095581055 -0.3899480998516083
31 1 0.41627803444862366 0.06442131847143173 0.6515138149261475
32 1 -0.09203947335481644 1.0146372318267822 0.8846440315246582
33 1 -0.37631916999816895 1.7068103551864624 0.0696088969707489
34 1 -0.14991183578968048 1.4427533149719238 -0.9786714911460876
35 1 -0.7054959535598755 0.6211135387420654 -1.4753501415252686
36 1 -1.4854187965393066 0.06749048084020615 -0.9221276640892029
37 1 -0.41620510816574097 -0.06510557979345322 -0.651430606842041
38 1 0.133038729429245 0.7468814849853516 -0.16012339293956757
ITEM: TIMESTEP
2
ITEM: NUMBER OF ATOMS
38
ITEM: BOX BOUNDS pp pp pp
 -5.0 5.0 
 -5.0 5.0 
 -5.0 5.0
ITEM: ATOMS id type x y z
1 1 0.19628465175628662 0.33043748140335083 1.7070966958999634
2 1 -0.6411051750183105 0.1981946974992752 0.3891238272190094
3 1 0.7057608366012573 -0.6203970313072205 1.4758214950561523
4 1 0.14967282116413116 -1.443060040473938 0.9778915047645569
5 1 0.3766351342201233 -1.707285761833191 -0.07130996882915497
6 1 0.09104138612747192 -1.0149239301681519 -0.884129524230957
7 1 0.9282135963439941 -0.8842647671699524 0.4233100116252899
8 1 -0.6879157423973083 -1.5732954740524292 -0.33277520537376404
9 1 -0.9129740595817566 -1.308039665222168 0.7151134610176086
10 1 -0.3589455187320709 -0.48612180352211 1.2051581144332886
11 1 -0.8749762177467346 0.4655126929283142 1.4418424367904663
12 1 -1.4273501634597778 -0.35358351469039917 0.9482737183570862
13 1 -1.7126740217208862 0.33412376046180725 0.13119252026081085
14 1 -1.1597039699554443 1.1509772539138794 0.6260879635810852
15 1 1.4855632781982422 -0.06777029484510422 0.9230325222015381
16 1 0.9731522798538208 0.8839455246925354 1.153583288192749
17 1 1.7122528553009033 -0.33320724964141846 -0.13144858181476593
18 1 0.6871298551559448 1.5739444494247437 0.33324673771858215
19 1 -0.927419126033783 0.8843827247619629 -0.42318060994148254
20 1 0.8745533227920532 -0.46451786160469055 -1.4418368339538574
21 1 -0.19412872195243835 -0.3309922218322754 -1.7062839269638062
22 1 0.3599925935268402 0.48711901903152466 -1.2049351930618286
23 1 1.4276894330978394 0.3529428243637085 -0.9478559494018555
24 1 -0.1338280290365219 -0.7476859092712402 0.15968286991119385
25 1 1.159277319908142 -1.151297688484192 -0.6261008381843567
26 1 -0.974281370639801 -0.8840916752815247 -1.1533976793289185
27 1 1.1956325769424438 0.6175239682197571 0.10121055692434311
28 1 -1.1955032348632812 -0.6174007654190063 -0.10214906185865402
29 1 0.9137392640113831 1.3091639280319214 -0.7145364284515381
30 1 0.6414111256599426 -0.19836066663265228 -0.3900865912437439
31 1 0.4162593185901642 0.06366952508687973 0.6514784693717957
32 1 -0.09234368056058884 1.0148048400878906 0.8844480514526367
33 1 -0.3766462802886963 1.7063908576965332 0.06975433975458145
34 1 -0.15001901984214783 1.4429898262023926 -0.9787876009941101
35 1 -0.7052891254425049 0.6215196251869202 -1.4750479459762573
36 1 -1.485718011856079 0.06736164540052414 -0.9219322204589844
37 1 -0.41611602902412415 -0.06503133475780487 -0.6513110399246216
38 1 0.1326756328344345 0.746322512626648 -0.16024336218833923
ITEM: TIMESTEP
3
ITEM: NUMBER OF ATOMS
38
ITEM: BOX BOUNDS pp pp pp
 -5.0 5.0 
 -5.0 5.0 
 -5.0 5.0
ITEM: ATOMS id type x y z
1 1 0.19704259932041168 0.3303380012512207 1.707181453704834
2 1 -0.6411212682723999 0.19836221635341644 0.38878539204597473
3 1 0.7057861089706421 -0.620250403881073 1.4759070873260498
4 1 0.14960767328739166 -1.44334077835083 0.9775529503822327
5 1 0.3769560158252716 -1.7073099613189697 -0.07224266976118088
6 1 0.0906941369175911 -1.015141248703003 -0.8837740421295166
7 1 0.9285081624984741 -0.8845909237861633 0.423257976770401
8 1 -0.6878113746643066 -1.5730926990509033 -0.332720547914505
9 1 -0.9123020172119141 -1.307570457458496 0.7151056528091431
10 1 -0.3586212694644928 -0.4860241711139679 1.2046808004379272
11 1 -0.875196099281311 0.46586179733276367 1.441658616065979
12 1 -1.4271576404571533 -0.3538734018802643 0.9486469030380249
13 1 -1.7127960920333862 0.33436787128448486 0.1313907951116562
14 1 -1.1599457263946533 1.150739312171936 0.6263929605484009
15 1 1.4857743978500366 -0.06784163415431976 0.923395574092865
16 1 0.9726243615150452 0.8840670585632324 1.1535712480545044
17 1 1.7121652364730835 -0.33299532532691956 -0.13176235556602478
18 1 0.686631977558136 1.5740712881088257 0.3334183990955353
19 1 -0.9273200631141663 0.8847677111625671 -0.4230623245239258
20 1 0.8745639324188232 -0.4643704891204834 -1.4416500329971313
21 1 -0.19380488991737366 -0.3311702609062195 -1.7059669494628906
22 1 0.36019420623779297 0.48751354217529297 -1.204345464706421
23 1 1.427671194076538 0.35290107131004333 -0.9480150938034058
24 1 -0.13404178619384766 -0.7478064894676208 0.15952329337596893
25 1 1.1593073606491089 -1.1512157917022705 -0.6264139413833618
26 1 -0.9743182063102722 -0.8842743039131165 -1.153295636177063
27 1 1.1957114934921265 0.6176916360855103 0.1007462665438652
28 1 -1.1955146789550781 -0.6175048351287842 -0.102151058614254
29 1 0.9134509563446045 1.3092472553253174 -0.7142441272735596
30 1 0.6415814757347107 -0.19860932230949402 -0.39022496342658997
31 1 0.41624072194099426 0.06291815638542175 0.6514430046081543
32 1 -0.09264778345823288 1.01497220993042 0.8842521905899048
33 1 -0.37697336077690125 1.7059714794158936 0.06989972293376923
34 1 -0.1501261591911316 1.4432264566421509 -0.9789036512374878
35 1 -0.7050822973251343 0.6219255328178406 -1.474745750427246
36 1 -1.4860169887542725 0.0672328919172287 -0.9217367768287659
37 1 -0.41602709889411926 -0.06495718657970428 -0.6511916518211365
38 1 0.1323128044605255 0.7457637786865234 -0.16036315262317657
ITEM: TIMESTEP
4
ITEM: NUMBER OF ATOMS
38
ITEM: BOX BOUNDS pp pp pp
 -5.0 5.0 
 -5.0 5.0 
 -5.0 5.0
ITEM: ATOMS id type x y z
1 1 0.19780008494853973 0.33023861050605774 1.707266092300415
2 1 -0.6411375403404236 0.19852952659130096 0.38844725489616394
3 1 0.7058114409446716 -0.6201040744781494 1.4759926795959473
4 1 0.14954276382923126 -1.4436213970184326 0.9772143363952637
5 1 0.37727683782577515 -1.707334280014038 -0.07317502051591873
6 1 0.09034713357686996 -1.0153584480285645 -0.8834189176559448
7 1 0.9288026690483093 -0.8849170804023743 0.4232059121131897
8 1 -0.6877071261405945 -1.5728901624679565 -0.3326658606529236
9 1 -0.9116302728652954 -1.3071014881134033 0.7150978446006775
10 1 -0.3582971394062042 -0.4859263598918915 1.204203724861145
11 1 -0.8754156827926636 0.46621066331863403 1.4414749145507812
12 1 -1.4269652366638184 -0.35416311025619507 0.9490199089050293
13 1 -1.7129181623458862 0.33461180329322815 0.13158906996250153
14 1 -1.1601876020431519 1.1505014896392822 0.626697838306427
15 1 1.4859853982925415 -0.06791283935308456 0.923758327960968
16 1 0.9720966219902039 0.8841884732246399 1.1535589694976807
17 1 1.7120777368545532 -0.33278346061706543 -0.1320759654045105
18 1 0.6861341595649719 1.5741980075836182 0.33358994126319885
19 1 -0.9272212982177734 0.8851524591445923 -0.42294415831565857
20 1 0.8745744824409485 -0.46422314643859863 -1.4414632320404053
21 1 -0.19348116219043732 -0.33134809136390686 -1.705649971961975
22 1 0.3603956699371338 0.4879077970981598 -1.2037560939788818
23 1 1.4276529550552368 0.3528594374656677 -0.9481742978096008
24 1 -0.13425517082214355 -0.7479270100593567 0.15936370193958282
25 1 1.1593375205993652 -1.1511338949203491 -0.6267270445823669
26 1 -0.9743550419807434 -0.8844568133354187 -1.1531935930252075
27 1 1.19579017162323 0.6178591847419739 0.10028243064880371
28 1 -1.1955262422561646 -0.6176087260246277 -0.1021529883146286
29 1 0.9131627082824707 1.309330701828003 -0.7139518857002258
30 1 0.6417516469955444 -0.19885794818401337 -0.3903631567955017
31 1 0.41622233390808105 0.06216743215918541 0.6514073610305786
32 1 -0.09295172244310379 1.0151392221450806 0.8840564489364624
33 1 -0.3773004114627838 1.7055522203445435 0.07004503160715103
34 1 -0.15023323893547058 1.4434632062911987 -0.9790195226669312
35 1 -0.7048755288124084 0.6223312020301819 -1.4744435548782349
36 1 -1.4863157272338867 0.0671042650938034 -0.9215413331985474
37 1 -0.4159384071826935 -0.06488317996263504 -0.6510725021362305
38 1 0.13195037841796875 0.7452055215835571 -0.16048267483711243
ITEM: TIMESTEP
5
ITEM: NUMBER OF ATOMS
38
ITEM: BOX BOUNDS pp pp pp
 -5.0 5.0 
 -5.0 5.0 
 -5.0 5.0
ITEM: ATOMS id type x y z
1 1 0.19855695962905884 0.33013930916786194 1.7073506116867065
2 1 -0.6411539912223816 0.1986965537071228 0.3881095349788666
3 1 0.705836832523346 -0.6199581623077393 1.4760781526565552
4 1 0.14947818219661713 -1.4439018964767456 0.9768756628036499
5 1 0.3775976002216339 -1.7073585987091064 -0.07410690188407898
6 1 0.0900004655122757 -1.0155752897262573 -0.8830642700195312
7 1 0.929097056388855 -0.8852431774139404 0.4231538474559784
8 1 -0.6876030564308167 -1.5726879835128784 -0.3326111137866974
9 1 -0.910959005355835 -1.3066328763961792 0.7150900959968567
10 1 -0.3579731583595276 -0.48582834005355835 1.203727126121521
11 1 -0.8756348490715027 0.46655917167663574 1.441291332244873
12 1 -1.4267728328704834 -0.35445258021354675 0.9493926763534546
13 1 -1.7130401134490967 0.33485546708106995 0.13178734481334686
14 1 -1.16042959690094 1.1502639055252075 0.6270025968551636
15 1 1.4861962795257568 -0.06798386573791504 0.9241207242012024
16 1 0.9715691208839417 0.8843097686767578 1.1535463333129883
17 1 1.711990237236023 -0.33257171511650085 -0.13238933682441711
18 1 0.6856364607810974 1.574324607849121 0.3337613642215729
19 1 -0.927122950553894 0.8855368494987488 -0.4228261411190033
20 1 0.8745849132537842 -0.46407589316368103 -1.4412765502929688
21 1 -0.19315756857395172 -0.33152568340301514 -1.70533287525177
22 1 0.3605969548225403 0.48830172419548035 -1.2031670808792114
23 1 1.427634835243225 0.35281798243522644 -0.9483335614204407
24 1 -0.13446806371212006 -0.748047411441803 0.15920409560203552
25 1 1.1593677997589111 -1.1510521173477173 -0.6270401477813721
26 1 -0.9743919372558594 -0.8846391439437866 -1.153091549873352
27 1 1.1958684921264648 0.6180265545845032 0.09981920570135117
28 1 -1.1955379247665405 -0.6177124381065369 -0.10215482860803604
29 1 0.9128745794296265 1.309414267539978 -0.7136596441268921
30 1 0.6419216394424438 -0.19910655915737152 -0.39050114154815674
31 1 0.41620421409606934 0.06141756474971771 0.6513714790344238
32 1 -0.09325544536113739 1.015305757522583 0.8838609457015991
33 1 -0.377627432346344 1.7051331996917725 0.07019022852182388
34 1 -0.1503402441740036 1.4436999559402466 -0.9791352152824402
35 1 -0.7046688199043274 0.6227365136146545 -1.4741414785385132
36 1 -1.4866142272949219 0.06697580218315125 -0.9213458895683289
37 1 -0.4158500134944916 -0.06480936706066132 -0.6509536504745483
38 1 0.13158850371837616 0.7446478009223938 -0.16060182452201843
ITEM: TIMESTEP
6
ITEM: NUMBER OF ATOMS
38
ITEM: BOX BOUNDS pp pp pp
 -5.0 5.0 
 -5.0 5.0 
 -5.0 5.0
ITEM: ATOMS id type x y z
1 1 0.19931307435035706 0.3300401568412781 1.7074350118637085
2 1 -0.6411707401275635 0.198863223195076 0.3877723515033722
3 1 0.7058623433113098 -0.6198127269744873 1.476163625717163
4 1 0.14941401779651642 -1.444182276725769 0.9765368700027466
5 1 0.3779182732105255 -1.7073830366134644 -0.07503819465637207
6 1 0.08965420722961426 -1.0157917737960815 -0.8827102184295654
7 1 0.9293912649154663 -0.8855692744255066 0.4231017827987671
8 1 -0.6874991655349731 -1.572486162185669 -0.33255627751350403
9 1 -0.9102882742881775 -1.3061646223068237 0.7150823473930359
10 1 -0.3576493561267853 -0.48573002219200134 1.2032510042190552
11 1 -0.8758535385131836 0.46690723299980164 1.441107988357544
12 1 -1.4265804290771484 -0.35474178194999695 0.949765145778656
13 1 -1.7131619453430176 0.33509883284568787 0.1319856196641922
14 1 -1.1606717109680176 1.1500266790390015 0.6273071765899658
15 1 1.486406922340393 -0.06805466115474701 0.9244827032089233
16 1 0.9710419178009033 0.8844308853149414 1.1535333395004272
17 1 1.7119028568267822 -0.33236008882522583 -0.13270242512226105
18 1 0.6851388812065125 1.5744510889053345 0.3339326083660126
19 1 -0.9270250797271729 0.8859208226203918 -0.42270833253860474
20 1 0.8745952844619751 -0.4639287292957306 -1.4410899877548218
21 1 -0.19283413887023926 -0.33170294761657715 -1.7050156593322754
22 1 0.36079803109169006 0.4886952340602875 -1.2025786638259888
23 1 1.427616834640503 0.35277676582336426 -0.9484928846359253
24 1 -0.1346803456544876 -0.7481677532196045 0.15904445946216583
25 1 1.1593981981277466 -1.1509703397750854 -0.6273532509803772
26 1 -0.9744288921356201 -0.8848212957382202 -1.1529896259307861
27 1 1.195946455001831 0.6181936860084534 0.0993567407131195
28 1 -1.1955498456954956 -0.6178158521652222 -0.10215655714273453
29 1 0.912586510181427 1.3094979524612427 -0.7133674621582031
30 1 0.6420913934707642 -0.1993551403284073 -0.3906388282775879
31 1 0.4161864221096039 0.060668762773275375 0.6513352990150452
32 1 -0.0935589000582695 1.0154716968536377 0.8836657404899597
33 1 -0.377954363822937 1.7047145366668701 0.07033529132604599
34 1 -0.15044716000556946 1.443936824798584 -0.9792507290840149
35 1 -0.7044622302055359 0.623141348361969 -1.4738394021987915
36 1 -1.4869123697280884 0.0668475478887558 -0.9211504459381104
37 1 -0.4157619774341583 -0.06473580002784729 -0.6508352160453796
38 1 0.1312273144721985 0.7440907955169678 -0.16072051227092743
ITEM: TIMESTEP
7
ITEM: NUMBER OF ATOMS
38
ITEM: BOX BOUNDS pp pp pp
 -5.0 5.0 
 -5.0 5.0 
 -5.0 5.0
ITEM: ATOMS id type x y z
1 1 0.20006829500198364 0.32994115352630615 1.7075191736221313
2 1 -0.641187846660614 0.19902946054935455 0.38743576407432556
3 1 0.7058879137039185 -0.6196678876876831 1.4762489795684814
4 1 0.1493503451347351 -1.444462537765503 0.9761980175971985
5 1 0.37823885679244995 -1.7074075937271118 -0.07596878707408905
6 1 0.08930844813585281 -1.016007900238037 -0.8823568820953369
7 1 0.9296852946281433 -0.885895311832428 0.4230496883392334
8 1 -0.6873955130577087 -1.5722848176956177 -0.3325013816356659
9 1 -0.9096181988716125 -1.305696964263916 0.7150746583938599
10 1 -0.35732579231262207 -0.48563137650489807 1.202775478363037
11 1 -0.8760716319084167 0.46725475788116455 1.440924882888794
12 1 -1.4263880252838135 -0.3550306260585785 0.9501372575759888
13 1 -1.713283658027649 0.33534181118011475 0.13218389451503754
14 1 -1.1609139442443848 1.149789810180664 0.627611517906189
15 1 1.4866173267364502 -0.06812518835067749 0.9248442053794861
16 1 0.9705151319503784 0.8845517635345459 1.153519868850708
17 1 1.711815595626831 -0.33214861154556274 -0.13301517069339752
18 1 0.684641420841217 1.5745773315429688 0.33410364389419556
19 1 -0.9269278049468994 0.8863043189048767 -0.4225907623767853
20 1 0.8746055364608765 -0.4637816548347473 -1.440903663635254
21 1 -0.1925109177827835 -0.3318798243999481 -1.7046984434127808
22 1 0.36099883913993835 0.489088237285614 -1.2019909620285034
23 1 1.4275990724563599 0.3527357876300812 -0.9486523270606995
24 1 -0.13489189743995667 -0.7482879161834717 0.15888479351997375
25 1 1.1594287157058716 -1.1508886814117432 -0.6276663541793823
26 1 -0.9744659066200256 -0.8850032091140747 -1.1528878211975098
27 1 1.1960240602493286 0.6183605790138245 0.09889517724514008
28 1 -1.1955620050430298 -0.6179189085960388 -0.10215815156698227
29 1 0.9122985601425171 1.3095818758010864 -0.7130753397941589
30 1 0.6422608494758606 -0.19960367679595947 -0.3907761871814728
31 1 0.41616904735565186 0.05992123857140541 0.6512987613677979
32 1 -0.09386203438043594 1.0156368017196655 0.883470892906189
33 1 -0.37828123569488525 1.7042962312698364 0.07048019766807556
34 1 -0.15055395662784576 1.4441739320755005 -0.9793660044670105
35 1 -0.7042557597160339 0.6235457062721252 -1.4735373258590698
36 1 -1.4872100353240967 0.06671953201293945 -0.9209550023078918
37 1 -0.4156743884086609 -0.06466253101825714 -0.6507172584533691
38 1 0.13086694478988647 0.7435346245765686 -0.16083864867687225
ITEM: TIMESTEP
8
ITEM: NUMBER OF ATOMS
38
ITEM: BOX BOUNDS pp pp pp
 -5.0 5.0 
 -5.0 5.0 
 -5.0 5.0
ITEM: ATOMS id type x y z
1 1 0.20082245767116547 0.32984232902526855 1.7076032161712646
2 1 -0.6412053108215332 0.19919520616531372 0.3870999217033386
3 1 0.7059136629104614 -0.6195237636566162 1.4763342142105103
4 1 0.14928725361824036 -1.4447426795959473 0.9758590459823608
5 1 0.37855932116508484 -1.7074322700500488 -0.07689855247735977
6 1 0.08896327018737793 -1.0162235498428345 -0.8820043206214905
7 1 0.9299790859222412 -0.8862212896347046 0.4229975640773773
8 1 -0.6872921586036682 -1.5720840692520142 -0.3324463665485382
9 1 -0.9089488387107849 -1.305229902267456 0.7150670289993286
10 1 -0.35700252652168274 -0.48553234338760376 1.2023006677627563
11 1 -0.8762890696525574 0.4676016569137573 1.4407421350479126
12 1 -1.4261956214904785 -0.3553190529346466 0.9505089521408081
13 1 -1.7134051322937012 0.3355843722820282 0.13238215446472168
14 1 -1.1611562967300415 1.1495534181594849 0.627915620803833
15 1 1.4868273735046387 -0.0681954026222229 0.9252051115036011
16 1 0.9699888229370117 0.8846724033355713 1.153505802154541
17 1 1.7117284536361694 -0.331937313079834 -0.13332751393318176
18 1 0.684144139289856 1.5747034549713135 0.33427441120147705
19 1 -0.9268312454223633 0.8866872191429138 -0.4224734604358673
20 1 0.8746156096458435 -0.463634729385376 -1.4407175779342651
21 1 -0.19218793511390686 -0.3320562541484833 -1.7043811082839966
22 1 0.3611993193626404 0.4894806742668152 -1.201404094696045
23 1 1.4275814294815063 0.35269513726234436 -0.9488118886947632
24 1 -0.13510258495807648 -0.7484079599380493 0.1587250828742981
25 1 1.1594594717025757 -1.1508071422576904 -0.6279794573783875
26 1 -0.9745029807090759 -0.8851848244667053 -1.152786135673523
27 1 1.196101188659668 0.6185271143913269 0.09843467175960541
28 1 -1.195574402809143 -0.618021547794342 -0.10215958952903748
29 1 0.9120107293128967 1.3096660375595093 -0.7127832770347595
30 1 0.6424300074577332 -0.19985216856002808 -0.3909131586551666
31 1 0.41615214943885803 0.05917520076036453 0.6512618064880371
32 1 -0.09416480362415314 1.0158010721206665 0.8832764625549316
33 1 -0.37860801815986633 1.703878402709961 0.07062491029500961
34 1 -0.15066061913967133 1.4444111585617065 -0.9794809222221375
35 1 -0.7040494084358215 0.623949408531189 -1.4732353687286377
36 1 -1.4875071048736572 0.06659180670976639 -0.9207595586776733
37 1 -0.41558733582496643 -0.06458961218595505 -0.6505998373031616
38 1 0.13050754368305206 0.7429794669151306 -0.16095614433288574
ITEM: TIMESTEP
9
ITEM: NUMBER OF ATOMS
38
ITEM: BOX BOUNDS pp pp pp
 -5.0 5.0 
 -5.0 5.0 
 -5.0 5.0
ITEM: ATOMS id type x y z
1 1 0.2015754133462906 0.32974371314048767 1.7076870203018188
2 1 -0.6412232518196106 0.19936038553714752 0.38676491379737854
3 1 0.705939531326294 -0.6193804144859314 1.4764193296432495
4 1 0.14922483265399933 -1.445022702217102 0.9755199551582336
5 1 0.3788796365261078 -1.707457184791565 -0.07782737910747528
6 1 0.08861875534057617 -1.016438603401184 -0.8816527128219604
7 1 0.93027263879776 -0.8865472078323364 0.42294543981552124
8 1 -0.6871891021728516 -1.571884036064148 -0.33239123225212097
9 1 -0.9082803726196289 -1.3047635555267334 0.7150594592094421
10 1 -0.3566795587539673 -0.48543286323547363 1.2018266916275024
11 1 -0.8765057325363159 0.4679478406906128 1.4405596256256104
12 1 -1.426003336906433 -0.3556070029735565 0.9508801698684692
13 1 -1.7135264873504639 0.33582642674446106 0.13258041441440582
14 1 -1.1613988876342773 1.1493175029754639 0.6282194256782532
15 1 1.4870370626449585 -0.06826525926589966 0.9255653023719788
16 1 0.9694629907608032 0.8847927451133728 1.1534911394119263
17 1 1.7116414308547974 -0.33172622323036194 -0.1336394101381302
18 1 0.683647096157074 1.574829339981079 0.33444491028785706
19 1 -0.9267354607582092 0.8870694637298584 -0.4223564565181732
20 1 0.8746255040168762 -0.4634879231452942 -1.440531611442566
21 1 -0.1918652206659317 -0.33223220705986023 -1.7040636539459229
22 1 0.36139944195747375 0.48987242579460144 -1.2008181810379028
23 1 1.427564024925232 0.3526548445224762 -0.9489715695381165
24 1 -0.1353122889995575 -0.7485277652740479 0.15856532752513885
25 1 1.1594904661178589 -1.1507256031036377 -0.6282925605773926
26 1 -0.974540114402771 -0.8853661417961121 -1.1526845693588257
27 1 1.1961777210235596 0.6186932921409607 0.09797536581754684
28 1 -1.195587158203125 -0.6181237101554871 -0.10216085612773895
29 1 0.9117230772972107 1.3097504377365112 -0.7124913334846497
30 1 0.6425987482070923 -0.2001006007194519 -0.39104968309402466
31 1 0.4161357879638672 0.058430857956409454 0.6512243151664734
32 1 -0.0944671481847763 1.015964388847351 0.8830825090408325
33 1 -0.37893468141555786 1.7034610509872437 0.07076941430568695
34 1 -0.15076713263988495 1.4446486234664917 -0.9795955419540405
35 1 -0.7038431763648987 0.6243524551391602 -1.4729334115982056
36 1 -1.48780357837677 0.06646440178155899 -0.9205641150474548
37 1 -0.4155008792877197 -0.06451709568500519 -0.6504830718040466
38 1 0.130149245262146 0.7424254417419434 -0.16107289493083954
ITEM: TIMESTEP
10
ITEM: NUMBER OF ATOMS
38
ITEM: BOX BOUNDS pp pp pp
 -5.0 5.0 
 -5.0 5.0 
 -5.0 5.0
ITEM: ATOMS id type x y z
1 1 0.20232702791690826 0.3296453058719635 1.707770586013794
2 1 -0.641241729259491 0.19952492415905 0.3864308297634125
3 1 0.7059655785560608 -0.6192379593849182 1.4765043258666992
4 1 0.149163156747818 -1.4453024864196777 0.9751807451248169
5 1 0.3791998028755188 -1.7074823379516602 -0.07875514030456543
6 1 0.0882749855518341 -1.016653060913086 -0.8813021779060364
7 1 0.9305659532546997 -0.8868730664253235 0.4228932857513428
8 1 -0.6870864033699036 -1.571684718132019 -0.3323359787464142
9 1 -0.9076129198074341 -1.304297924041748 0.7150519490242004
10 1 -0.3563569486141205 -0.4853328764438629 1.201353669166565
11 1 -0.8767215609550476 0.4682932496070862 1.4403774738311768
12 1 -1.4258110523223877 -0.35589444637298584 0.9512508511543274
13 1 -1.7136476039886475 0.33606791496276855 0.13277865946292877
14 1 -1.1616417169570923 1.1490821838378906 0.6285228729248047
15 1 1.4872463941574097 -0.06833472102880478 0.9259247779846191
16 1 0.9689377546310425 0.8849127888679504 1.1534757614135742
17 1 1.7115545272827148 -0.3315153419971466 -0.13395079970359802
18 1 0.6831502318382263 1.574954867362976 0.3346150815486908
19 1 -0.9266405701637268 0.8874509930610657 -0.4222398102283478
20 1 0.8746352195739746 -0.46334129571914673 -1.4403460025787354
21 1 -0.1915428191423416 -0.3324075937271118 -1.7037460803985596
22 1 0.3615991771221161 0.490263432264328 -1.2002333402633667
23 1 1.4275468587875366 0.3526149392127991 -0.949131429195404
24 1 -0.13552089035511017 -0.7486473917961121 0.15840552747249603
25 1 1.1595216989517212 -1.1506441831588745 -0.6286056637763977
26 1 -0.9745773673057556 -0.8855470418930054 -1.1525832414627075
27 1 1.1962536573410034 0.6188591122627258 0.09751740097999573
28 1 -1.1956002712249756 -0.6182253360748291 -0.10216192156076431
29 1 0.911435604095459 1.3098350763320923 -0.7121994495391846
30 1 0.642767071723938 -0.20034897327423096 -0.3911857008934021
31 1 0.4161200523376465 0.05768841877579689 0.6511862874031067
32 1 -0.09476902335882187 1.0161266326904297 0.8828890323638916
33 1 -0.3792612552642822 1.7030442953109741 0.07091367989778519
34 1 -0.15087346732616425 1.444886326789856 -0.9797097444534302
35 1 -0.7036371231079102 0.6247546672821045 -1.472631573677063
36 1 -1.4880993366241455 0.06633735448122025 -0.9203686714172363
37 1 -0.41541510820388794 -0.06444502621889114 -0.650367021560669
38 1 0.12979218363761902 0.7418727278709412 -0.16118879616260529
ITEM: TIMESTEP
11
ITEM: NUMBER OF ATOMS
38
ITEM: BOX BOUNDS pp pp pp
 -5.0 5.0 
 -5.0 5.0 
 -5.0 5.0
ITEM: ATOMS id type x y z
1 1 0.20307715237140656 0.3295471668243408 1.70785391330719
2 1 -0.6412607431411743 0.19968874752521515 0.38609778881073
3 1 0.705991804599762 -0.6190964579582214 1.4765892028808594
4 1 0.1491023153066635 -1.4455820322036743 0.9748413562774658
5 1 0.37951982021331787 -1.707507610321045 -0.07968172430992126
6 1 0.0879320427775383 -1.0168668031692505 -0.8809528350830078
7 1 0.9308589696884155 -0.887198805809021 0.4228411018848419
8 1 -0.686984121799469 -1.5714861154556274 -0.33228057622909546
9 1 -0.9069465398788452 -1.303833246231079 0.7150444984436035
10 1 -0.3560347557067871 -0.4852323532104492 1.2008816003799438
11 1 -0.8769364953041077 0.46863776445388794 1.4401957988739014
12 1 -1.4256188869476318 -0.3561813235282898 0.9516209363937378
13 1 -1.713768482208252 0.3363088071346283 0.13297688961029053
14 1 -1.1618847846984863 1.1488474607467651 0.6288259625434875
15 1 1.4874552488327026 -0.06840375065803528 0.9262834191322327
16 1 0.9684131741523743 0.8850324749946594 1.1534596681594849
17 1 1.7114678621292114 -0.33130472898483276 -0.1342616230249405
18 1 0.6826536655426025 1.575080156326294 0.33478492498397827
19 1 -0.9265466928482056 0.8878316879272461 -0.42212358117103577
20 1 0.8746447563171387 -0.4631948173046112 -1.4401606321334839
21 1 -0.19122076034545898 -0.33258235454559326 -1.7034283876419067
22 1 0.3617984652519226 0.4906536042690277 -1.1996495723724365
23 1 1.4275299310684204 0.35257548093795776 -0.949291467666626
24 1 -0.13572825491428375 -0.7487667798995972 0.15824566781520844
25 1 1.1595532894134521 -1.1505628824234009 -0.6289187669754028
26 1 -0.974614679813385 -0.88572758436203 -1.152482032775879
27 1 1.19632887840271 0.6190244555473328 0.0970609188079834
28 1 -1.1956137418746948 -0.6183264255523682 -0.10216276347637177
29 1 0.9111483097076416 1.309920072555542 -0.711907684803009
30 1 0.6429349184036255 -0.20059727132320404 -0.3913211524486542
31 1 0.4161050021648407 0.056948091834783554 0.6511476635932922
32 1 -0.09507037699222565 1.0162876844406128 0.8826961517333984
33 1 -0.37958768010139465 1.702628254890442 0.07105767726898193
34 1 -0.15097960829734802 1.4451242685317993 -0.9798235297203064
35 1 -0.703431248664856 0.625156044960022 -1.47232985496521
36 1 -1.4883943796157837 0.06621070951223373 -0.9201732277870178
37 1 -0.41533011198043823 -0.06437347084283829 -0.6502517461776733
38 1 0.12943650782108307 0.7413214445114136 -0.16130377352237701
ITEM: TIMESTEP
12
ITEM: NUMBER OF ATOMS
38
ITEM: BOX BOUNDS pp pp pp
 -5.0 5.0 
 -5.0 5.0 
 -5.0 5.0
ITEM: ATOMS id type x y z
1 1 0.20382563769817352 0.32944929599761963 1.7079368829727173
2 1 -0.6412804126739502 0.19985178112983704 0.3857659101486206
3 1 0.7060182690620422 -0.6189560890197754 1.47667396068573
4 1 0.14904238283634186 -1.4458613395690918 0.9745017886161804