ITEM: TIMESTEP
0
ITEM: NUMBER OF ATOMS
38
ITEM: BOX BOUNDS pp pp pp
 -5.0 5.0 
 -5.0 5.0 
 -5.0 5.0
ITEM: ATOMS id type x y z
1 1 0.19476799 0.33063656 1.70692721
2 1 -0.64107328 0.19785932 0.38980123
3 1 0.70571044 -0.62069076 1.4756503
4 1 0.14980353 -1.44249852 0.97856853
5 1 0.3759933 -1.70723731 -0.06944398
6 1 0.09173631 -1.01448879 -0.88484104
7 1 0.92762431 -0.88361233 0.42341408
8 1 -0.68812463 -1.57370144 -0.33288442
9 1 -0.9143187 -1.30897855 0.71512905
10 1 -0.35959423 -0.48631676 1.20611338
11 1 -0.87453595 0.46481405 1.44221035
12 1 -1.42773526 -0.35300345 0.94752707
13 1 -1.7124296 0.33363525 0.13079597
14 1 -1.15922045 1.15145353 0.62547779
15 1 1.48514068 -0.06762738 0.922306
16 1 0.97420851 0.8837023 1.15360696
17 1 1.71242812 -0.33363123 -0.13082073
18 1 0.68812571 1.57369048 0.33290325
19 1 -0.92761768 0.88361236 -0.42341735
20 1 0.87453197 -0.46481272 -1.4422107
21 1 -0.19477654 -0.33063585 -1.70691793
22 1 0.35958916 0.48632959 -1.20611528
23 1 1.42772613 0.35302654 -0.9475378
24 1 -0.13339989 -0.7474446 0.160002
25 1 1.15921743 -1.15146151 -0.62547463
26 1 -0.97420771 -0.88372618 -1.15360198
27 1 1.19547445 0.61718838 0.10213991
28 1 -1.19548049 -0.61719231 -0.10214494
29 1 0.91431593 1.30899754 -0.71512106
30 1 0.64107025 -0.19786334 -0.38980954
31 1 0.41629684 0.06517333 0.65154909
32 1 -0.09173521 1.01446946 0.88484006
33 1 -0.37599203 1.70723003 0.06946343
34 1 -0.14980464 1.44251683 -0.97855531
35 1 -0.70570284 0.62070735 -1.47565232
36 1 -1.48511961 0.06761936 -0.92232311
37 1 -0.41629428 -0.06517987 -0.65155021
38 1 0.13340196 0.74744063 -0.16000333
