ITEM: TIMESTEP
0
ITEM: NUMBER OF ATOMS
38
ITEM: BOX BOUNDS pp pp pp
-5.0 5.0
-5.0 5.0
-5.0 5.0
ITEM: ATOMS id type x y z vx vy vz
1 1 0.45436954498291016 0.503852367401123 1.797767162322998 -0.1765659749507904 -0.30318108201026917 -0.1288292109966278
2 1 -0.6231346130371094 -0.036463141441345215 0.010921239852905273 -0.0009070730884559453 0.2115389108657837 0.4596371054649353
3 1 0.5334986448287964 -0.5186172723770142 1.4515632390975952 0.298705130815506 -0.16241955757141113 -0.06400997936725616
4 1 0.6138795018196106 -1.5514122247695923 0.9996565580368042 -0.3289167582988739 0.07697927206754684 -0.15193410217761993
5 1 0.5868085026741028 -1.5025126934051514 -0.11318302154541016 -0.1216580718755722 -0.16699399054050446 -0.11762071400880814
6 1 0.5199829339981079 -1.4335041046142578 -1.231337070465088 -0.4950682818889618 0.5163178443908691 0.29121989011764526
7 1 1.078102946281433 -0.7171365022659302 0.49578961730003357 -0.1116643026471138 -0.13138370215892792 -0.1736927181482315
8 1 -0.37067729234695435 -1.7620015144348145 -0.6308416128158569 -0.2327570915222168 0.22210097312927246 0.26277145743370056
9 1 -0.3325771987438202 -1.81061589717865 0.46087804436683655 -0.42619797587394714 0.48914575576782227 0.23677727580070496
10 1 -0.30505138635635376 -1.1634184122085571 1.4701138734817505 0.07211733609437943 0.700257420539856 -0.3200814425945282
11 1 -0.41840067505836487 -0.15773415565490723 1.8808720111846924 -0.4693705439567566 0.5468167662620544 -0.4634251892566681
12 1 -0.9923015236854553 -0.4327406883239746 0.9676326513290405 -0.3618008494377136 -0.08580819517374039 -0.015743039548397064
13 1 -1.0523831844329834 0.6951689720153809 0.6714606285095215 -0.6920185685157776 -0.514133632183075 -0.5339553356170654
14 1 -0.5130365490913391 0.9816077351570129 1.5701122283935547 -0.7106409072875977 0.05125361680984497 -0.9326180219650269
15 1 1.0062682628631592 0.3114203214645386 0.8564313650131226 0.556252658367157 -0.42062005400657654 0.023379096761345863
16 1 0.35157546401023865 1.2143296003341675 0.9322563409805298 0.6964966654777527 -0.3866276741027832 0.24137620627880096
17 1 1.6092071533203125 0.1122368574142456 -0.08657068014144897 0.08401317894458771 -0.33920198678970337 -0.14039643108844757
18 1 0.3167419731616974 1.9224305152893066 0.09123408794403076 0.29337310791015625 -0.3966980278491974 0.3668169379234314
19 1 -1.1552561521530151 0.7077134847640991 -0.49323320388793945 0.1938731074333191 0.15801376104354858 0.2093682885169983
20 1 0.40785831212997437 -0.3650590181350708 -1.5010013580322266 0.4035571217536926 0.04631544649600983 0.01744559407234192
21 1 -0.5940638780593872 0.022668004035949707 -1.8104658126831055 0.3413315713405609 -0.30766963958740234 0.14410927891731262
22 1 0.27276816964149475 0.7346864938735962 -1.7963348627090454 -0.009230836294591427 -0.17963072657585144 0.7097696661949158
23 1 0.9190328121185303 0.4146576523780823 -0.9276526570320129 0.4282779097557068 0.06567691266536713 -0.036671772599220276
24 1 -0.018309444189071655 -0.7914406061172485 0.5141147375106812 -0.07803630083799362 0.05311956629157066 -0.48558560013771057
25 1 1.0401575565338135 -0.6460812091827393 -0.6278899908065796 0.14101648330688477 -0.4248991906642914 -0.11500255018472672
26 1 -0.51541668176651 -1.049726963043213 -1.5067875385284424 -0.5234031081199646 0.1924283504486084 0.4082414507865906
27 1 0.9140709042549133 0.9901531338691711 0.032826900482177734 0.2188047468662262 -0.3555791974067688 0.050485916435718536
28 1 -1.0051803588867188 -1.080041766166687 -0.025071769952774048 -0.15008193254470825 0.446181982755661 -0.08515263348817825
29 1 0.2848765254020691 1.3450061082839966 -0.8687092065811157 0.5288404226303101 0.0835246741771698 0.2330249398946762
30 1 0.439375102519989 0.02032613754272461 -0.025109171867370605 0.20668452978134155 -0.20190925896167755 -0.44869422912597656
31 1 -0.08463144302368164 0.21699607372283936 0.9159432649612427 0.6222752928733826 -0.19887344539165497 -0.3387988209724426
32 1 -0.5713989734649658 1.71200430393219 0.6973292827606201 0.548201858997345 -0.8825405240058899 0.28671348094940186
33 1 -0.6577569842338562 1.7748970985412598 -0.4841482639312744 0.2312767654657364 -0.15315042436122894 0.7441271543502808
34 1 -0.6972862482070923 1.127428650856018 -1.396528959274292 0.4601883292198181 0.3607270419597626 0.6034908294677734
35 1 -0.15934962034225464 0.3476301431655884 -0.8745952844619751 -0.7273895740509033 0.3660321533679962 -0.5595719814300537
36 1 -1.057869791984558 -0.3515866994857788 -0.8934808969497681 -0.5103734731674194 0.4452308416366577 0.05362186208367348
37 1 -0.04765439033508301 -0.7259632349014282 -0.5746731758117676 -0.4693901240825653 0.7577860355377197 -0.08186232298612595
38 1 -0.1768418550491333 0.9408572912216187 0.0507163405418396 0.2878526449203491 -0.21161745488643646 -0.1767907440662384
ITEM: TIMESTEP
1
ITEM: NUMBER OF ATOMS
38
ITEM: BOX BOUNDS pp pp pp
-5.0 5.0
-5.0 5.0
-5.0 5.0
ITEM: ATOMS id type x y z vx vy vz
1 1 0.45260685682296753 0.500825047492981 1.7964839935302734 -0.17598001658916473 -0.3023097813129425 -0.1278384029865265
2 1 -0.6231449842453003 -0.034351348876953125 0.015511870384216309 -0.0011458785738795996 0.21084189414978027 0.4584287405014038
3 1 0.5364840030670166 -0.520240843296051 1.450926661491394 0.2983573079109192 -0.162294402718544 -0.06329789757728577
4 1 0.6105948090553284 -1.5506466627120972 0.9981407523155212 -0.3280271589756012 0.07617902010679245 -0.15124915540218353
5 1 0.5855941772460938 -1.5041847229003906 -0.1143571138381958 -0.12119483202695847 -0.16739599406719208 -0.11721070110797882
6 1 0.5150389671325684 -1.4283485412597656 -1.228429913520813 -0.49363502860069275 0.5148612260818481 0.29023051261901855
7 1 1.0769894123077393 -0.7184505462646484 0.4940555989742279 -0.11100761592388153 -0.13143278658390045 -0.17314939200878143
8 1 -0.37300312519073486 -1.7597858905792236 -0.6282176971435547 -0.23240067064762115 0.22100238502025604 0.2620096504688263
9 1 -0.33683550357818604 -1.805732011795044 0.46324434876441956 -0.4254618287086487 0.4876333773136139 0.2364831566810608
10 1 -0.3043317198753357 -1.1564240455627441 1.466918706893921 0.07181986421346664 0.6986103653907776 -0.31893470883369446
11 1 -0.4230906665325165 -0.15227103233337402 1.8762452602386475 -0.46863117814064026 0.5458045601844788 -0.46192601323127747
12 1 -0.9959186911582947 -0.4335985481739044 0.9674773216247559 -0.36163797974586487 -0.08576423674821854 -0.01530682947486639
13 1 -1.059300184249878 0.6900342702865601 0.6661278009414673 -0.6913979649543762 -0.5128269195556641 -0.5326105356216431
14 1 -0.5201380252838135 0.9821218848228455 1.5607967376708984 -0.7096570134162903 0.051588550209999084 -0.930440366268158
15 1 1.0118284225463867 0.30722033977508545 0.8566669225692749 0.5557959079742432 -0.41937723755836487 0.02369862236082554
16 1 0.35853490233421326 1.2104690074920654 0.9346702098846436 0.6953874826431274 -0.38547980785369873 0.24138280749320984
17 1 1.6100502014160156 0.10884761810302734 -0.08797204494476318 0.08459475636482239 -0.3386591970920563 -0.13983699679374695
18 1 0.319673091173172 1.9184703826904297 0.09489750862121582 0.29285377264022827 -0.3952634930610657 0.3658442199230194
19 1 -1.153321385383606 0.7092937231063843 -0.49114274978637695 0.19306743144989014 0.1580250859260559 0.20872123539447784
20 1 0.4118906855583191 -0.36459702253341675 -1.500830054283142 0.40291476249694824 0.046069566160440445 0.016772568225860596
21 1 -0.5906550884246826 0.019595861434936523 -1.8090299367904663 0.3404204249382019 -0.3067353069782257 0.14308872818946838
22 1 0.27267640829086304 0.7328934073448181 -1.7892463207244873 -0.009120590053498745 -0.17901122570037842 0.7079070210456848
23 1 0.9233139753341675 0.4153144359588623 -0.9280210137367249 0.42797380685806274 0.06567984819412231 -0.03700792044401169
24 1 -0.019088536500930786 -0.7909114956855774 0.5092662572860718 -0.07776864618062973 0.052700191736221313 -0.48413634300231934
25 1 1.0415687561035156 -0.6503278613090515 -0.6290402412414551 0.1412283182144165 -0.42444825172424316 -0.11504597961902618
26 1 -0.5206470489501953 -1.0478063821792603 -1.5027116537094116 -0.5226835012435913 0.19167490303516388 0.40693598985671997
27 1 0.916259229183197 0.9866024255752563 0.03333073854446411 0.21883493661880493 -0.3545606732368469 0.05029125139117241
28 1 -1.0066821575164795 -1.0755858421325684 -0.02592185139656067 -0.1502630114555359 0.4449926018714905 -0.08486086875200272
29 1 0.29016023874282837 1.3458436727523804 -0.8663828372955322 0.5278732180595398 0.08398642390966415 0.23225802183151245
30 1 0.44144073128700256 0.018310070037841797 -0.029590249061584473 0.20644249022006989 -0.20126394927501678 -0.44750067591667175
31 1 -0.07841610908508301 0.21501076221466064 0.9125599265098572 0.6206894516944885 -0.1981256604194641 -0.33783817291259766
32 1 -0.5659241676330566 1.7031896114349365 0.7001954317092896 0.5467144250869751 -0.8804131746292114 0.28651130199432373
33 1 -0.6554477214813232 1.7733707427978516 -0.4767155647277832 0.2305714637041092 -0.15213996171951294 0.7423824667930603
34 1 -0.6926902532577515 1.131035327911377 -1.390501856803894 0.45900484919548035 0.3606332242488861 0.6019280552864075
35 1 -0.16661673784255981 0.3512873649597168 -0.8801883459091187 -0.7260094285011292 0.36541804671287537 -0.5590425729751587
36 1 -1.062971591949463 -0.34714066982269287 -0.8929470777511597 -0.5100072026252747 0.4439486563205719 0.0531611293554306
37 1 -0.05234193801879883 -0.7183946371078491 -0.5754920840263367 -0.46814391016960144 0.7559393048286438 -0.08192965388298035
38 1 -0.17396783828735352 0.9387450218200684 0.04895073175430298 0.2869589328765869 -0.21086326241493225 -0.1763295978307724
ITEM: TIMESTEP
2
ITEM: NUMBER OF ATOMS
38
ITEM: BOX BOUNDS pp pp pp
-5.0 5.0
-5.0 5.0
-5.0 5.0
ITEM: ATOMS id type x y z vx vy vz
1 1 0.4508499503135681 0.4978061616420746 1.795210361480713 -0.17539533972740173 -0.30144068598747253 -0.1268485188484192
2 1 -0.6231576204299927 -0.03224635124206543 0.02008974552154541 -0.0013847202062606812 0.21014611423015594 0.4572232663631439
3 1 0.5394657850265503 -0.5218631029129028 1.450297236442566 0.29801177978515625 -0.1621704250574112 -0.0625862330198288
4 1 0.6073190569877625 -1.5498886108398438 0.9966316223144531 -0.3271399736404419 0.07537931203842163 -0.15056532621383667
5 1 0.5843845009803772 -1.5058608055114746 -0.11552727222442627 -0.12073246389627457 -0.167799174785614 -0.11680145561695099
6 1 0.510109543800354 -1.4232069253921509 -1.2255325317382812 -0.49220505356788635 0.5134084224700928 0.2892431616783142
7 1 1.0758826732635498 -0.7197651863098145 0.4923267066478729 -0.11035172641277313 -0.13148288428783417 -0.17260731756687164
8 1 -0.3753253221511841 -1.7575812339782715 -0.6256014704704285 -0.23204582929611206 0.2199053168296814 0.26124969124794006
9 1 -0.3410864770412445 -1.8008629083633423 0.4656077027320862 -0.42472875118255615 0.4861243963241577 0.23619075119495392
10 1 -0.3036149740219116 -1.1494461297988892 1.4637352228164673 0.07152298092842102 0.6969686150550842 -0.31779032945632935
11 1 -0.42777329683303833 -0.1468181610107422 1.8716334104537964 -0.4678952395915985 0.5447956323623657 -0.4604301154613495
12 1 -0.9995343089103699 -0.4344559609889984 0.9673265218734741 -0.36147770285606384 -0.08572093397378922 -0.014870716258883476
13 1 -1.066211223602295 0.6849125623703003 0.6608085632324219 -0.6907821297645569 -0.5115237832069397 -0.5312694311141968
14 1 -0.5272297263145447 0.982639491558075 1.5515031814575195 -0.7086782455444336 0.05192388594150543 -0.9282692670822144
15 1 1.0173840522766113 0.3030327558517456 0.8569053411483765 0.5553432703018188 -0.4181370437145233 0.024018317461013794
16 1 0.36548325419425964 1.2066197395324707 0.9370840787887573 0.6942833662033081 -0.38433462381362915 0.24139121174812317
17 1 1.6108989715576172 0.10546368360519409 -0.08936744928359985 0.08517690002918243 -0.3381190896034241 -0.13927842676639557
18 1 0.32259905338287354 1.9145252704620361 0.09855115413665771 0.29233652353286743 -0.39383184909820557 0.36487382650375366
19 1 -1.1513948440551758 0.7108739614486694 -0.4890586733818054 0.1922631859779358 0.15803761780261993 0.2080756425857544
20 1 0.4159166216850281 -0.36413753032684326 -1.5006659030914307 0.40227535367012024 0.04582403972744942 0.016099663451313972
21 1 -0.5872554779052734 0.016533493995666504 -1.8076040744781494 0.3395116627216339 -0.30580297112464905 0.14206917583942413
22 1 0.2725857198238373 0.7311063408851624 -1.7821768522262573 -0.009010443463921547 -0.17839297652244568 0.7060493230819702
23 1 0.9275922775268555 0.41597121953964233 -0.9283927083015442 0.427672803401947 0.0656832754611969 -0.037344370037317276
24 1 -0.01986488699913025 -0.7903865575790405 0.504431962966919 -0.07750151306390762 0.05228118970990181 -0.48269039392471313
25 1 1.0429821014404297 -0.6545701026916504 -0.6301908493041992 0.14144118130207062 -0.42400047183036804 -0.11509024351835251
26 1 -0.5258703827857971 -1.0458931922912598 -1.4986488819122314 -0.5219679474830627 0.19092287123203278 0.4056335687637329
27 1 0.9184477925300598 0.9830619096755981 0.03383263945579529 0.218866765499115 -0.35354477167129517 0.050096917897462845
28 1 -1.008185625076294 -1.0711419582366943 -0.02676907181739807 -0.15044520795345306 0.44380658864974976 -0.08456961810588837
29 1 0.2954341173171997 1.346685767173767 -0.86406409740448 0.526909589767456 0.08444877713918686 0.23149286210536957
30 1 0.4435039758682251 0.01630079746246338 -0.03405916690826416 0.2062019407749176 -0.20061978697776794 -0.4463101029396057
31 1 -0.07221770286560059 0.21303343772888184 0.9091864824295044 0.6191073060035706 -0.19737906754016876 -0.33688005805015564
32 1 -0.5604645013809204 1.694395899772644 0.7030595541000366 0.5452305674552917 -0.8782921433448792 0.2863112688064575
33 1 -0.653145432472229 1.7718544006347656 -0.4693002700805664 0.2298678606748581 -0.1511305868625641 0.7406423687934875
34 1 -0.6881061792373657 1.1346412897109985 -1.3844902515411377 0.4578246772289276 0.36054208874702454 0.6003695726394653
35 1 -0.17386984825134277 0.35493847727775574 -0.8857762217521667 -0.7246344685554504 0.36480656266212463 -0.5585170984268188
36 1 -1.0680699348449707 -0.3427075147628784 -0.8924176692962646 -0.5096446871757507 0.442669153213501 0.05270078405737877
37 1 -0.05701708793640137 -0.7108445167541504 -0.5763117671012878 -0.46690088510513306 0.7540976405143738 -0.08199761807918549
38 1 -0.17110252380371094 0.9366400241851807 0.04718983173370361 0.28606700897216797 -0.2101106345653534 -0.1758696585893631
ITEM: TIMESTEP
3
ITEM: NUMBER OF ATOMS
38
ITEM: BOX BOUNDS pp pp pp
-5.0 5.0
-5.0 5.0
-5.0 5.0
ITEM: ATOMS id type x y z vx vy vz
1 1 0.44909894466400146 0.49479618668556213 1.7939469814300537 -0.1748119741678238 -0.30057379603385925 -0.12585954368114471
2 1 -0.6231726408004761 -0.03014838695526123 0.024655938148498535 -0.0016235949005931616 0.20945152640342712 0.45602062344551086
3 1 0.5424442291259766 -0.5234842300415039 1.4496749639511108 0.2976684272289276 -0.16204771399497986 -0.061875004321336746
4 1 0.6040521264076233 -1.5491386651992798 0.9951293468475342 -0.32625508308410645 0.07458016276359558 -0.14988262951374054
5 1 0.5831795334815979 -1.5075407028198242 -0.11669307947158813 -0.1202709972858429 -0.16820356249809265 -0.11639302223920822
6 1 0.5051947832107544 -1.41808021068573 -1.2226449251174927 -0.4907786548137665 0.5119593143463135 0.2882579267024994
7 1 1.074782371520996 -0.7210803031921387 0.49060341715812683 -0.10969667136669159 -0.13153398036956787 -0.17206652462482452
8 1 -0.37764400243759155 -1.755387544631958 -0.622992753982544 -0.231692835688591 0.2188098430633545 0.2604916989803314
9 1 -0.34533005952835083 -1.7960094213485718 0.4679681658744812 -0.4239988327026367 0.4846189320087433 0.2359001487493515
10 1 -0.3029012680053711 -1.1424846649169922 1.460563063621521 0.07122662663459778 0.6953319907188416 -0.3166482150554657
11 1 -0.4324485659599304 -0.14137542247772217 1.867037057876587 -0.4671628475189209 0.5437902808189392 -0.45893746614456177
12 1 -1.0031481981277466 -0.43531298637390137 0.9671798944473267 -0.3613201379776001 -0.08567832410335541 -0.014434712007641792
13 1 -1.0731159448623657 0.679803729057312 0.6555023193359375 -0.6901711821556091 -0.5102244019508362 -0.5299322009086609
14 1 -0.5343115925788879 0.9831604361534119 1.5422316789627075 -0.7077049016952515 0.05225961282849312 -0.9261052012443542
15 1 1.022935390472412 0.29885756969451904 0.8571470975875854 0.5548946261405945 -0.41689956188201904 0.02433820441365242
16 1 0.3724205493927002 1.202782154083252 0.9394979476928711 0.6931843757629395 -0.3831922709941864 0.24140141904354095
17 1 1.6117537021636963 0.10208511352539062 -0.09075742959976196 0.08575966209173203 -0.3375816345214844 -0.13872073590755463
18 1 0.32551974058151245 1.9105942249298096 0.1021949052810669 0.2918214797973633 -0.39240291714668274 0.3639056980609894
19 1 -1.1494760513305664 0.7124543786048889 -0.4869811534881592 0.19146029651165009 0.15805137157440186 0.20743167400360107
20 1 0.4199361503124237 -0.36368054151535034 -1.5005079507827759 0.4016389548778534 0.045578885823488235 0.015426884405314922
21 1 -0.5838649272918701 0.013479948043823242 -1.8061884641647339 0.33860552310943604 -0.3048725724220276 0.14105063676834106
22 1 0.27249622344970703 0.7293255925178528 -1.7751256227493286 -0.008900404907763004 -0.17777609825134277 0.7041966319084167
23 1 0.9318675398826599 0.41662806272506714 -0.9287679195404053 0.4273749887943268 0.06568719446659088 -0.03768109530210495
24 1 -0.02063855528831482 -0.7898657917976379 0.4996122121810913 -0.07723493874073029 0.05186256393790245 -0.48124784231185913
25 1 1.0443978309631348 -0.6588079333305359 -0.6313419342041016 0.14165514707565308 -0.4235559403896332 -0.11513543128967285
26 1 -0.5310864448547363 -1.0439879894256592 -1.4945988655090332 -0.5212562680244446 0.1901721954345703 0.4043341279029846
27 1 0.9206365346908569 0.9795315861701965 0.034332722425460815 0.2189001888036728 -0.352531373500824 0.04990294575691223
28 1 -1.0096909999847412 -1.0667097568511963 -0.02761325240135193 -0.1506284773349762 0.44262373447418213 -0.08427891880273819
29 1 0.30069828033447266 1.3475326299667358 -0.8617531061172485 0.5259498953819275 0.08491173386573792 0.23072946071624756
30 1 0.44556477665901184 0.014297842979431152 -0.03851628303527832 0.20596306025981903 -0.19997674226760864 -0.44512245059013367
31 1 -0.06603455543518066 0.21106350421905518 0.9058225154876709 0.6175292134284973 -0.1966337263584137 -0.3359244167804718
32 1 -0.5550198554992676 1.6856237649917603 0.7059217095375061 0.5437505841255188 -0.8761774301528931 0.28611335158348083
33 1 -0.6508502960205078 1.770348310470581 -0.4619026184082031 0.22916598618030548 -0.1501222848892212 0.738906741142273
34 1 -0.683533787727356 1.1382462978363037 -1.378494381904602 0.456647664308548 0.3604535460472107 0.5988154411315918
35 1 -0.1811092495918274 0.3585835099220276 -0.8913588523864746 -0.7232648134231567 0.36419782042503357 -0.5579959154129028
36 1 -1.0731645822525024 -0.338287353515625 -0.8918930292129517 -0.5092859864234924 0.4413924217224121 0.05224083736538887
37 1 -0.061679959297180176 -0.7033126354217529 -0.5771321058273315 -0.46566101908683777 0.7522611021995544 -0.08206622302532196
38 1 -0.16824638843536377 0.9345428943634033 0.04543328285217285 0.28517696261405945 -0.2093595564365387 -0.1754109412431717
ITEM: TIMESTEP
4
ITEM: NUMBER OF ATOMS
38
ITEM: BOX BOUNDS pp pp pp
-5.0 5.0
-5.0 5.0
-5.0 5.0
ITEM: ATOMS id type x y z vx vy vz
1 1 0.44735366106033325 0.49179479479789734 1.7926931381225586 -0.17422990500926971 -0.2997092008590698 -0.12487157434225082
2 1 -0.6231900453567505 -0.02805769443511963 0.02920985221862793 -0.0018624967196956277 0.208758145570755 0.4548211097717285
3 1 0.5454191565513611 -0.5251041650772095 1.4490597248077393 0.2973273992538452 -0.1619262844324112 -0.061164215207099915
4 1 0.6007938981056213 -1.5483970642089844 0.9936339855194092 -0.3253726065158844 0.07378159463405609 -0.1492011547088623
5 1 0.5819790959358215 -1.5092246532440186 -0.11785507202148438 -0.11981043219566345 -0.1686091423034668 -0.1159854531288147
6 1 0.5002942085266113 -1.4129678010940552 -1.2197673320770264 -0.48935550451278687 0.5105140805244446 0.28727486729621887
7 1 1.0736886262893677 -0.7223958373069763 0.48888543248176575 -0.10904250293970108 -0.13158610463142395 -0.17152704298496246
8 1 -0.3799591660499573 -1.7532048225402832 -0.6203915476799011 -0.23134158551692963 0.21771594882011414 0.259735643863678
9 1 -0.34956640005111694 -1.7911710739135742 0.4703257083892822 -0.4232719838619232 0.4831169545650482 0.23561134934425354
10 1 -0.3021904230117798 -1.1355396509170532 1.4574021100997925 0.07093086838722229 0.6937005519866943 -0.3155084252357483
11 1 -0.4371165633201599 -0.1359424591064453 1.8624546527862549 -0.4664340913295746 0.5427883863449097 -0.45744821429252625
12 1 -1.006760597229004 -0.4361695349216461 0.9670376777648926 -0.36116528511047363 -0.08563641458749771 -0.013998815789818764
13 1 -1.080014705657959 0.6747082471847534 0.6502097845077515 -0.6895653605461121 -0.5089287161827087 -0.5285987854003906
14 1 -0.5413837432861328 0.9836846590042114 1.532981276512146 -0.7067365050315857 0.05259573459625244 -0.9239479303359985
15 1 1.0284819602966309 0.29469454288482666 0.8573920726776123 0.5544500946998596 -0.4156647026538849 0.024658259004354477
16 1 0.37934693694114685 1.1989558935165405 0.941912055015564 0.6920907497406006 -0.38205283880233765 0.24141333997249603
17 1 1.6126141548156738 0.09871196746826172 -0.09214174747467041 0.08634299784898758 -0.3370468020439148 -0.13816390931606293
18 1 0.32843542098999023 1.906677484512329 0.10582911968231201 0.29130852222442627 -0.3909768760204315 0.3629400432109833
19 1 -1.147565484046936 0.7140350341796875 -0.48491019010543823 0.1906588226556778 0.15806639194488525 0.20678922533988953
20 1 0.42394936084747314 -0.363226056098938 -1.5003572702407837 0.40100565552711487 0.0453341081738472 0.014754260890185833
21 1 -0.5804831981658936 0.010435938835144043 -1.8047829866409302 0.3377017080783844 -0.30394428968429565 0.14003315567970276
22 1 0.2724077105522156 0.7275508642196655 -1.7680929899215698 -0.008790472522377968 -0.1771606057882309 0.7023491859436035
23 1 0.9361397624015808 0.4172849655151367 -0.929146409034729 0.42708033323287964 0.06569160521030426 -0.038018081337213516
24 1 -0.021409571170806885 -0.789349377155304 0.49480676651000977 -0.07696891576051712 0.05144433677196503 -0.4798088073730469
25 1 1.0458152294158936 -0.6630412340164185 -0.6324936151504517 0.1418701410293579 -0.423114538192749 -0.11518144607543945
26 1 -0.5362954139709473 -1.042089819908142 -1.4905623197555542 -0.5205486416816711 0.18942296504974365 0.4030376076698303
27 1 0.9228256344795227 0.9760112762451172 0.034830719232559204 0.21893523633480072 -0.3515208065509796 0.04970930889248848
28 1 -1.0111981630325317 -1.0622894763946533 -0.02845454216003418 -0.15081289410591125 0.4414443373680115 -0.08398879319429398
29 1 0.3059530258178711 1.348384141921997 -0.8594494462013245 0.5249941945075989 0.08537528663873672 0.2299678772687912
30 1 0.44762322306632996 0.012301206588745117 -0.042961835861206055 0.20572566986083984 -0.19933480024337769 -0.4439377188682556
31 1 -0.059866905212402344 0.20910072326660156 0.9024680256843567 0.6159552335739136 -0.1958896666765213 -0.3349713981151581
32 1 -0.5495896339416504 1.6768728494644165 0.7087817788124084 0.5422744154930115 -0.8740691542625427 0.28591760993003845
33 1 -0.6485621333122253 1.7688519954681396 -0.45452237129211426 0.22846584022045135 -0.1491151601076126 0.737175703048706
34 1 -0.6789730787277222 1.1418503522872925 -1.3725141286849976 0.45547419786453247 0.36036765575408936 0.5972658395767212
35 1 -0.188335120677948 0.36222243309020996 -0.8969361186027527 -0.721900224685669 0.36359190940856934 -0.5574788451194763
36 1 -1.0782556533813477 -0.3338799476623535 -0.891372799873352 -0.508931040763855 0.4401184618473053 0.051781296730041504
37 1 -0.0663304328918457 -0.6957992315292358 -0.5779531002044678 -0.4644244313240051 0.7504297494888306 -0.08213545382022858
38 1 -0.16539907455444336 0.9324530363082886 0.04368150234222412 0.2842887341976166 -0.20861013233661652 -0.17495344579219818
ITEM: TIMESTEP
5
ITEM: NUMBER OF ATOMS
38
ITEM: BOX BOUNDS pp pp pp
-5.0 5.0
-5.0 5.0
-5.0 5.0
ITEM: ATOMS id type x y z vx vy vz
1 1 0.4456143379211426 0.4888019859790802 1.7914495468139648 -0.17364919185638428 -0.2988468408584595 -0.12388455867767334
2 1 -0.6232098340988159 -0.02597332000732422 0.03375256061553955 -0.0021014271769672632 0.2080659717321396 0.4536243975162506
3 1 0.5483907461166382 -0.52672278881073 1.4484516382217407 0.29698872566223145 -0.161806121468544 -0.060453906655311584
4 1 0.5975446105003357 -1.5476632118225098 0.9921453595161438 -0.32449260354042053 0.07298362255096436 -0.14852078258991241
5 1 0.5807833075523376 -1.5109131336212158 -0.11901295185089111 -0.11935076117515564 -0.16901595890522003 -0.11557868868112564
6 1 0.49540793895721436 -1.4078700542449951 -1.2168996334075928 -0.48793601989746094 0.5090727210044861 0.28629401326179504
7 1 1.072601556777954 -0.7237119674682617 0.487172931432724 -0.10838919878005981 -0.1316392719745636 -0.17098885774612427
8 1 -0.38227084279060364 -1.7510333061218262 -0.6177980899810791 -0.23099210858345032 0.2166237235069275 0.2589815855026245
9 1 -0.35379549860954285 -1.7863472700119019 0.47268038988113403 -0.4225483536720276 0.48161858320236206 0.235324427485466
10 1 -0.3014826774597168 -1.1286107301712036 1.4542527198791504 0.07063566893339157 0.6920745372772217 -0.3143710792064667
11 1 -0.4417772591114044 -0.13051939010620117 1.8578879833221436 -0.46570885181427 0.5417900085449219 -0.45596233010292053
12 1 -1.010371446609497 -0.4370257258415222 0.9668998718261719 -0.36101311445236206 -0.08559518307447433 -0.013563043437898159
13 1 -1.0869072675704956 0.6696252822875977 0.6449307203292847 -0.6889647245407104 -0.5076367855072021 -0.5272692441940308
14 1 -0.5484462976455688 0.984212338924408 1.523752212524414 -0.7057737708091736 0.0529322475194931 -0.9217976927757263
15 1 1.0340243577957153 0.29054439067840576 0.857640266418457 0.5540098547935486 -0.414432555437088 0.024978479370474815
16 1 0.3862624168395996 1.195141077041626 0.9443261623382568 0.6910024881362915 -0.3809163570404053 0.24142710864543915
17 1 1.613480567932129 0.0953441858291626 -0.09352070093154907 0.08692692220211029 -0.33651483058929443 -0.13760799169540405
18 1 0.33134594559669495 1.9027745723724365 0.10945367813110352 0.2907978296279907 -0.3895536959171295 0.361976683139801
19 1 -1.1456629037857056 0.7156157493591309 -0.48284536600112915 0.1898588240146637 0.15808263421058655 0.2061484307050705
20 1 0.4279562830924988 -0.3627738952636719 -1.5002131462097168 0.4003755450248718 0.0450897216796875 0.014081789180636406
21 1 -0.5771108865737915 0.007401227951049805 -1.8033877611160278 0.33680054545402527 -0.30301788449287415 0.1390167474746704
22 1 0.27232038974761963 0.7257822751998901 -1.7610787153244019 -0.008680655620992184 -0.17654645442962646 0.7005069255828857
23 1 0.9404091238975525 0.4179419279098511 -0.9295281767845154 0.42678898572921753 0.06569653004407883 -0.03835536912083626
24 1 -0.022177904844284058 -0.7888369560241699 0.49001622200012207 -0.07670343667268753 0.05102653056383133 -0.4783731698989868
25 1 1.0472350120544434 -0.6672701835632324 -0.6336456537246704 0.1420862078666687 -0.42267635464668274 -0.11522839963436127
26 1 -0.5414974093437195 -1.0401993989944458 -1.486538290977478 -0.5198452472686768 0.1886751800775528 0.40174439549446106
27 1 0.9250150918960571 0.972501277923584 0.03532683849334717 0.21897196769714355 -0.35051295161247253 0.04951605573296547
28 1 -1.0127074718475342 -1.0578808784484863 -0.0292930006980896 -0.15099844336509705 0.44026827812194824 -0.08369924128055573
29 1 0.31119823455810547 1.3492401838302612 -0.8571536540985107 0.5240421891212463 0.0858393982052803 0.22920803725719452
30 1 0.44967931509017944 0.010311245918273926 -0.04739534854888916 0.20548993349075317 -0.19869405031204224 -0.44275590777397156
31 1 -0.05371499061584473 0.20714545249938965 0.8991230726242065 0.6143849492073059 -0.19514679908752441 -0.33402103185653687
32 1 -0.544174313545227 1.668142318725586 0.7116400003433228 0.540802001953125 -0.8719674944877625 0.28572410345077515
33 1 -0.6462808847427368 1.7673656940460205 -0.4471590518951416 0.22776751220226288 -0.1481090933084488 0.7354494333267212
34 1 -0.6744242906570435 1.1454535722732544 -1.366549015045166 0.454304039478302 0.3602844774723053 0.5957207083702087
35 1 -0.1955472230911255 0.36585533618927 -0.9025082588195801 -0.7205411195755005 0.3629886507987976 -0.5569659471511841
36 1 -1.083343267440796 -0.3294851779937744 -0.8908573389053345 -0.5085799694061279 0.43884748220443726 0.051322177052497864
37 1 -0.07096850872039795 -0.68830406665802 -0.5787748098373413 -0.4631911814212799 0.7486037015914917 -0.08220533281564713
38 1 -0.16256070137023926 0.9303706884384155 0.041934192180633545 0.28340238332748413 -0.20786231756210327 -0.17449721693992615
ITEM: TIMESTEP
6
ITEM: NUMBER OF ATOMS
38
ITEM: BOX BOUNDS pp pp pp
-5.0 5.0
-5.0 5.0
-5.0 5.0
ITEM: ATOMS id type x y z vx vy vz
1 1 0.4438807964324951 0.48581793904304504 1.7902157306671143 -0.17306990921497345 -0.2979869544506073 -0.12289860099554062
2 1 -0.6232321262359619 -0.023895978927612305 0.03828263282775879 -0.0023403814993798733 0.20737512409687042 0.45243093371391296
3 1 0.5513589382171631 -0.528340220451355 1.4478505849838257 0.29665249586105347 -0.16168725490570068 -0.059744060039520264
4 1 0.5943040251731873 -1.5469374656677246 0.9906633496284485 -0.32361501455307007 0.07218626141548157 -0.1478416919708252
5 1 0.5795921087265015 -1.5126051902770996 -0.1201665997505188 -0.11889205127954483 -0.16942396759986877 -0.11517279595136642
6 1 0.4905357360839844 -1.402786135673523 -1.2140414714813232 -0.486519992351532 0.5076353549957275 0.28531530499458313