ITEM: TIMESTEP
0
ITEM: NUMBER OF ATOMS
38
ITEM: BOX BOUNDS pp pp pp
-5.0 5.0
-5.0 5.0
-5.0 5.0
ITEM: ATOMS id type x y z vx vy vz
1 1 0.4679551422595978 0.5035245418548584 1.8059886693954468 0.2910230755805969 -0.05114790052175522 0.16373926401138306
2 1 -0.618009090423584 -0.03464782238006592 0.022543907165527344 0.14164216816425323 0.10796540975570679 0.21207989752292633
3 1 0.5474578142166138 -0.5263440608978271 1.4415607452392578 0.290299654006958 -0.18002569675445557 -0.20771196484565735
4 1 0.6004143953323364 -1.560166835784912 0.9978933930397034 -0.31345316767692566 -0.18670554459095 -0.05246807262301445
5 1 0.5653049945831299 -1.5055052042007446 -0.11437809467315674 -0.4742392599582672 -0.0731646940112114 -0.04087609052658081
6 1 0.4912451505661011 -1.4323811531066895 -1.2323708534240723 -0.6660927534103394 0.022505827248096466 -0.03567748889327049
7 1 1.0812256336212158 -0.7261125445365906 0.4819144010543823 0.05505180358886719 -0.22484853863716125 -0.28883448243141174
8 1 -0.39176660776138306 -1.7577366828918457 -0.6242814064025879 -0.4826548993587494 0.08990541100502014 0.1770152747631073
9 1 -0.3604300022125244 -1.8010176420211792 0.4785478413105011 -0.644467294216156 0.24486979842185974 0.3938581347465515
10 1 -0.31974339485168457 -1.164527177810669 1.4709813594818115 -0.2761867940425873 0.04180832952260971 0.008878218941390514
11 1 -0.42171213030815125 -0.1426071971654892 1.8703447580337524 -0.09910163283348083 0.32465729117393494 -0.24696561694145203
12 1 -0.9882634878158569 -0.43299272656440735 0.9619128704071045 0.06752602756023407 -0.028798436746001244 -0.10919018089771271
13 1 -1.1395004987716675 0.6531945466995239 0.6367440223693848 -2.016983985900879 -0.977124035358429 -0.7913092374801636
14 1 -0.5631852149963379 0.9423774480819702 1.5112955570220947 -1.14210045337677 -0.855354905128479 -1.3251148462295532
15 1 1.0307538509368896 0.3004112243652344 0.8620733022689819 0.5631875991821289 -0.25068238377571106 0.11015705019235611
16 1 0.38663220405578613 1.2082768678665161 0.9488308429718018 0.7776599526405334 -0.14195626974105835 0.34642112255096436
17 1 1.6060798168182373 0.09901094436645508 -0.08797287940979004 -0.032343924045562744 -0.3118206858634949 -0.04803783819079399
18 1 0.3418481945991516 1.9208804368972778 0.09971773624420166 0.568486750125885 -0.05036945268511772 0.2160671055316925
19 1 -1.1381795406341553 0.7390345931053162 -0.4877993166446686 0.3752184212207794 0.6794002056121826 0.15209482610225677
20 1 0.40158289670944214 -0.3611334562301636 -1.5023167133331299 -0.12031135708093643 0.08226510137319565 -0.02937580645084381
21 1 -0.5933452844619751 0.03002345561981201 -1.8076550960540771 0.02914956398308277 0.12248800694942474 0.06023840606212616
22 1 0.28068438172340393 0.7348414063453674 -1.790909767150879 0.20420852303504944 0.04289328679442406 0.10997948795557022
23 1 0.932776927947998 0.4152270555496216 -0.9312300682067871 0.31958770751953125 3.4224591217935085e-05 -0.08676420897245407
24 1 -0.017070740461349487 -0.7887207269668579 0.5079164505004883 0.02806209959089756 0.03880390152335167 -0.12248311936855316
25 1 1.0372393131256104 -0.6597598195075989 -0.6394404768943787 -0.06402868032455444 -0.3153133988380432 -0.2517726421356201
26 1 -0.5392621755599976 -1.0482507944107056 -1.4972044229507446 -0.5809469819068909 0.04934979975223541 0.2420128583908081
27 1 0.9373095035552979 0.9906494617462158 0.024997219443321228 0.5170736908912659 -0.021960942074656487 -0.1280614584684372
28 1 -1.0054157972335815 -1.0551810264587402 -0.02539008855819702 -0.04462366923689842 0.5375220775604248 -0.017430411651730537
29 1 0.3061610460281372 1.343207836151123 -0.8554970026016235 0.48915740847587585 -0.029563667252659798 0.2966701090335846
30 1 0.4595160484313965 0.023788928985595703 -0.028136610984802246 0.429669588804245 0.03030514344573021 -0.07878563553094864
31 1 -0.06261134147644043 0.21366894245147705 0.9051946401596069 0.553407609462738 -0.10038736462593079 -0.21971380710601807
32 1 -0.553155779838562 1.7103267908096313 0.7085980772972107 0.4748493432998657 -0.017420904710888863 0.25026172399520874
33 1 -0.6392567157745361 1.7779896259307861 -0.45179009437561035 0.42004823684692383 0.08890290558338165 0.7338959574699402
34 1 -0.6726387143135071 1.1523406505584717 -1.385509729385376 0.5782891511917114 0.5938113927841187 0.28978216648101807
35 1 -0.15667426586151123 0.3485443592071533 -0.8668174147605896 0.03294910863041878 0.07478277385234833 0.11099148541688919
36 1 -1.0714212656021118 -0.3231780529022217 -0.8878719806671143 -0.32612714171409607 0.6435437798500061 0.14187145233154297
37 1 -0.06091892719268799 -0.7222436666488647 -0.5794199705123901 -0.27764075994491577 0.11416487395763397 -0.09042525291442871
38 1 -0.16163241863250732 0.9351892471313477 0.05894267559051514 0.3539780080318451 -0.09912854433059692 0.1714026927947998
ITEM: TIMESTEP
1
ITEM: NUMBER OF ATOMS
38
ITEM: BOX BOUNDS pp pp pp
-5.0 5.0
-5.0 5.0
-5.0 5.0
ITEM: ATOMS id type x y z vx vy vz
1 1 0.47090330719947815 0.5029332637786865 1.8075991868972778 0.29842957854270935 -0.06699075549840927 0.1584545373916626
2 1 -0.6165914535522461 -0.033446431159973145 0.024616718292236328 0.14179804921150208 0.13193672895431519 0.2026754915714264
3 1 0.5503014922142029 -0.528143048286438 1.4395567178726196 0.27860140800476074 -0.17963966727256775 -0.19330987334251404
4 1 0.5972955226898193 -1.5619959831237793 0.9973464608192444 -0.3103930354118347 -0.17917369306087494 -0.056905440986156464
5 1 0.5606309771537781 -1.506223440170288 -0.11479705572128296 -0.46053844690322876 -0.07043610513210297 -0.04294882342219353
6 1 0.4846543073654175 -1.4321508407592773 -1.2327388525009155 -0.6521626710891724 0.023648399859666824 -0.037956252694129944
7 1 1.0817444324493408 -0.7283746004104614 0.4790830612182617 0.04872295632958412 -0.22748446464538574 -0.27752989530563354
8 1 -0.3965582847595215 -1.7568155527114868 -0.622495710849762 -0.4756515324115753 0.09411749988794327 0.18015015125274658
9 1 -0.3668444752693176 -1.7985529899597168 0.4823973476886749 -0.6385053992271423 0.2481834888458252 0.3762950599193573
10 1 -0.3224046230316162 -1.164035439491272 1.4711025953292847 -0.25622105598449707 0.056641168892383575 0.015379820019006729
11 1 -0.4225977063179016 -0.13938389718532562 1.8678889274597168 -0.07873870432376862 0.32028481364250183 -0.24424126744270325
12 1 -0.9876174926757812 -0.43322011828422546 0.9608574509620667 0.061448533087968826 -0.0170072540640831 -0.10207816958427429
13 1 -1.1597778797149658 0.6432420015335083 0.6287961006164551 -2.037055730819702 -1.0132286548614502 -0.7988420128822327
14 1 -0.574804425239563 0.9337414503097534 1.4978399276733398 -1.1804062128067017 -0.8716520667076111 -1.365903615951538
15 1 1.0363357067108154 0.2979090213775635 0.8631055355072021 0.5532552599906921 -0.24976344406604767 0.09643679857254028
16 1 0.3943673074245453 1.2068761587142944 0.9521623253822327 0.7695809602737427 -0.13824927806854248 0.3201924264431
17 1 1.6058298349380493 0.09588515758514404 -0.0885009765625 -0.017700722441077232 -0.3133333623409271 -0.057472407817840576
18 1 0.3475381135940552 1.9203766584396362 0.1018991470336914 0.5693578124046326 -0.050428327172994614 0.2201938033103943
19 1 -1.13441002368927 0.7457252740859985 -0.48632505536079407 0.3784050941467285 0.6588883399963379 0.1432926207780838
20 1 0.40042269229888916 -0.3603056073188782 -1.5025578737258911 -0.11161231249570847 0.08333151042461395 -0.018991470336914062
21 1 -0.5930709838867188 0.031232476234436035 -1.8070015907287598 0.025842813774943352 0.11896517872810364 0.07039221376180649
22 1 0.28262650966644287 0.735251247882843 -1.7897759675979614 0.18436722457408905 0.039332419633865356 0.11661164462566376
23 1 0.9359076619148254 0.4151996970176697 -0.9320955276489258 0.3068021833896637 -0.005353886168450117 -0.08634600043296814
24 1 -0.01681092381477356 -0.7883279919624329 0.5067247152328491 0.023911479860544205 0.039816178381443024 -0.11597180366516113
25 1 1.0365763902664185 -0.6628508567810059 -0.6419094204902649 -0.06839565187692642 -0.3030814230442047 -0.24206994473934174
26 1 -0.545122504234314 -1.0477495193481445 -1.494773268699646 -0.5911679863929749 0.05078897625207901 0.2443348914384842
27 1 0.9424552917480469 0.990378737449646 0.023802146315574646 0.512073814868927 -0.03219793736934662 -0.11111614853143692
28 1 -1.0059285163879395 -1.0498766899108887 -0.0255831778049469 -0.05787855386734009 0.5234606266021729 -0.021228162571787834
29 1 0.3110015094280243 1.3429384231567383 -0.8525804281234741 0.47912946343421936 -0.024300551041960716 0.28668180108070374
30 1 0.46366578340530396 0.024048805236816406 -0.0289762020111084 0.40062278509140015 0.021745214238762856 -0.08898939192295074
31 1 -0.05701804161071777 0.2126985788345337 0.903122067451477 0.564694344997406 -0.09356430172920227 -0.19510430097579956
32 1 -0.5482726097106934 1.7101801633834839 0.7111916542053223 0.5014351010322571 -0.012349797412753105 0.2685568928718567
33 1 -0.6350448131561279 1.7789582014083862 -0.44454121589660645 0.42205801606178284 0.10468482971191406 0.7163176536560059
34 1 -0.6669397950172424 1.1582472324371338 -1.3826154470443726 0.5615030527114868 0.5876432657241821 0.2894182503223419
35 1 -0.1562579870223999 0.3493058681488037 -0.8656705617904663 0.049836333841085434 0.07769284397363663 0.11818995326757431
36 1 -1.0745558738708496 -0.3167717456817627 -0.886436402797699 -0.3013523817062378 0.6377032995223999 0.1452491730451584
37 1 -0.06364893913269043 -0.7210808992385864 -0.580282986164093 -0.2684645354747772 0.11836210638284683 -0.08229488134384155
38 1 -0.15799248218536377 0.9342995882034302 0.06070584058761597 0.3736605942249298 -0.07914883643388748 0.18094110488891602
ITEM: TIMESTEP
2
ITEM: NUMBER OF ATOMS
38
ITEM: BOX BOUNDS pp pp pp
-5.0 5.0
-5.0 5.0
-5.0 5.0
ITEM: ATOMS id type x y z vx vy vz
1 1 0.47391876578330994 0.5021870136260986 1.8091589212417603 0.304432213306427 -0.08210505545139313 0.15341496467590332
2 1 -0.6151762008666992 -0.03201484680175781 0.02660369873046875 0.14108695089817047 0.15413343906402588 0.19499970972537994
3 1 0.5530337691307068 -0.529935359954834 1.4376907348632812 0.2680582106113434 -0.17876921594142914 -0.1800658255815506
4 1 0.5942051410675049 -1.5637507438659668 0.996755838394165 -0.30772802233695984 -0.17180581390857697 -0.06118878722190857
5 1 0.5560946464538574 -1.5069139003753662 -0.11523774266242981 -0.44670653343200684 -0.06767614185810089 -0.04522312805056572
6 1 0.47819840908050537 -1.4319067001342773 -1.2331299781799316 -0.6393001079559326 0.025226030498743057 -0.04022054374217987
7 1 1.0822006464004517 -0.7306601405143738 0.476362943649292 0.04256002977490425 -0.22953422367572784 -0.2665189802646637
8 1 -0.40127813816070557 -1.755855917930603 -0.62067711353302 -0.4682392179965973 0.0977819412946701 0.18369156122207642
9 1 -0.3732013702392578 -1.79605233669281 0.48607906699180603 -0.6329295635223389 0.25212979316711426 0.36030545830726624
10 1 -0.3248687982559204 -1.1633915901184082 1.471286654472351 -0.23663875460624695 0.07229850441217422 0.02133113518357277
11 1 -0.4233008623123169 -0.13619498908519745 1.8654565811157227 -0.0625760480761528 0.317844957113266 -0.24241654574871063
12 1 -0.9870394468307495 -0.4333397448062897 0.959868848323822 0.05391781032085419 -0.0072662364691495895 -0.09578178077936172
13 1 -1.1802150011062622 0.6329365968704224 0.6207600831985474 -2.049086093902588 -1.0475698709487915 -0.8086987137794495
14 1 -0.5867667198181152 0.924952507019043 1.4839832782745361 -1.2107477188110352 -0.8857028484344482 -1.4050250053405762
15 1 1.0418205261230469 0.29541468620300293 0.8640051484107971 0.5437629818916321 -0.24922223389148712 0.08361628651618958
16 1 0.40202784538269043 1.2055097818374634 0.9552422165870667 0.762725830078125 -0.1351434290409088 0.2961232364177704
17 1 1.6057238578796387 0.09274494647979736 -0.08911985158920288 -0.003629975952208042 -0.3146642744541168 -0.0662045106291771
18 1 0.35323166847229004 1.9198702573776245 0.10412096977233887 0.5691609382629395 -0.05094548687338829 0.22414860129356384
19 1 -1.1306190490722656 0.7522150278091431 -0.4849222004413605 0.3793751001358032 0.6392194628715515 0.13784727454185486
20 1 0.3993527889251709 -0.35946589708328247 -1.5026986598968506 -0.10222872346639633 0.0846339613199234 -0.009285969659686089
21 1 -0.5928249359130859 0.03239309787750244 -1.8062528371810913 0.023494847118854523 0.11274810880422592 0.07911129295825958
22 1 0.2843790352344513 0.7356335520744324 -1.7885816097259521 0.16652576625347137 0.037417612969875336 0.12212301045656204
23 1 0.9389176368713379 0.41512274742126465 -0.9329560995101929 0.29538723826408386 -0.00991869904100895 -0.08568128943443298
24 1 -0.0165928453207016 -0.7879234552383423 0.505595326423645 0.01966366544365883 0.04113351181149483 -0.110008105635643
25 1 1.0358753204345703 -0.6658254861831665 -0.6442827582359314 -0.07162018120288849 -0.29204779863357544 -0.23264476656913757
26 1 -0.5510856509208679 -1.0472379922866821 -1.4923142194747925 -0.601402223110199 0.051390111446380615 0.24766157567501068
27 1 0.9475493431091309 0.990005373954773 0.022771835327148438 0.5066637992858887 -0.0424799881875515 -0.09512341022491455
28 1 -1.006572961807251 -1.0447087287902832 -0.025815308094024658 -0.0709640234708786 0.5101562142372131 -0.025232747197151184
29 1 0.31574830412864685 1.3427218198776245 -0.8497618436813354 0.47044429183006287 -0.019025014713406563 0.2771850526332855
30 1 0.4675365090370178 0.02422463893890381 -0.029912292957305908 0.3737472593784332 0.013425072655081749 -0.09800725430250168
31 1 -0.051326751708984375 0.21180009841918945 0.9012861251831055 0.5731326937675476 -0.08612670749425888 -0.17238353192806244
32 1 -0.5431336164474487 1.7100698947906494 0.7139692902565002 0.5261378884315491 -0.010231981053948402 0.2868543863296509
33 1 -0.6308211088180542 1.7800788879394531 -0.4374568462371826 0.4224850833415985 0.11928781121969223 0.7009333968162537
34 1 -0.6614050269126892 1.1640982627868652 -1.3797144889831543 0.5456821322441101 0.5828351378440857 0.29104775190353394
35 1 -0.15568888187408447 0.3501009941101074 -0.8644611835479736 0.06362968683242798 0.081447534263134 0.12323113530874252
36 1 -1.0774586200714111 -0.3104245662689209 -0.8849669098854065 -0.2797132432460785 0.631699800491333 0.14867158234119415
37 1 -0.06629073619842529 -0.7198768854141235 -0.5810685157775879 -0.26003265380859375 0.12251349538564682 -0.07494795322418213
38 1 -0.15416789054870605 0.9336004257202148 0.06255173683166504 0.3908565938472748 -0.06100531294941902 0.1877603530883789
ITEM: TIMESTEP
3
ITEM: NUMBER OF ATOMS
38
ITEM: BOX BOUNDS pp pp pp
-5.0 5.0
-5.0 5.0
-5.0 5.0
ITEM: ATOMS id type x y z vx vy vz
1 1 0.47698715329170227 0.5012935400009155 1.8106683492660522 0.30903032422065735 -0.09647313505411148 0.14862175285816193
2 1 -0.6137722730636597 -0.030370354652404785 0.028521299362182617 0.1395416259765625 0.17451710999011993 0.18894819915294647
3 1 0.5556665062904358 -0.5317167043685913 1.435951590538025 0.2586774230003357 -0.17743635177612305 -0.1679745465517044
4 1 0.5911396741867065 -1.5654325485229492 0.996123194694519 -0.30545976758003235 -0.16460438072681427 -0.06531094759702682
5 1 0.5516972541809082 -1.507576823234558 -0.11570209264755249 -0.4327641427516937 -0.06490059942007065 -0.047686636447906494
6 1 0.47186505794525146 -1.4316447973251343 -1.2335431575775146 -0.6274867057800293 0.02723103202879429 -0.04245660454034805
7 1 1.0825960636138916 -0.7329633235931396 0.47375160455703735 0.03657122701406479 -0.23099975287914276 -0.2558372914791107
8 1 -0.4059218764305115 -1.754861831665039 -0.6188207268714905 -0.4604450762271881 0.10091768205165863 0.18762724101543427
9 1 -0.3795042634010315 -1.7935086488723755 0.4896087050437927 -0.6277605891227722 0.25668469071388245 0.3458854556083679
10 1 -0.3271389603614807 -1.16258704662323 1.471527338027954 -0.21748818457126617 0.08873506635427475 0.026724839583039284
11 1 -0.4238627552986145 -0.13302113115787506 1.8630378246307373 -0.050505440682172775 0.317330002784729 -0.24152009189128876
12 1 -0.9865436553955078 -0.4333721399307251 0.9589390754699707 0.04498923197388649 0.0004911196301691234 -0.09030676633119583
13 1 -1.2007331848144531 0.6222966909408569 0.6126143932342529 -2.0532515048980713 -1.080067753791809 -0.8207410573959351
14 1 -0.5989937782287598 0.9160345792770386 1.4697446823120117 -1.2333848476409912 -0.8974555730819702 -1.44235360622406
15 1 1.0472126007080078 0.2929239273071289 0.8647809028625488 0.5347359776496887 -0.24904467165470123 0.07170457392930984
16 1 0.4096256494522095 1.2041712999343872 0.9580919146537781 0.7571040987968445 -0.1326281577348709 0.2742220163345337
17 1 1.60575532913208 0.08959245681762695 -0.08982270956039429 0.00983921717852354 -0.3158172070980072 -0.07423646003007889
18 1 0.35891783237457275 1.9193559885025024 0.10638153553009033 0.5679265856742859 -0.05191662907600403 0.2279461920261383
19 1 -1.1268295049667358 0.7585127353668213 -0.48355749249458313 0.3781992197036743 0.6203896999359131 0.13562604784965515
20 1 0.3983802795410156 -0.35861220955848694 -1.5027458667755127 -0.09219861030578613 0.08617939054965973 -0.0002259127504657954
21 1 -0.5925983190536499 0.033478736877441406 -1.8054240942001343 0.02206338383257389 0.10393107682466507 0.08645284175872803
22 1 0.2859633266925812 0.7360049486160278 -1.787337064743042 0.15064220130443573 0.037077706307172775 0.12658223509788513
23 1 0.9418200850486755 0.4150041341781616 -0.9338085651397705 0.2853625416755676 -0.0136562529951334 -0.08479101955890656
24 1 -0.016417816281318665 -0.7875043153762817 0.5045226812362671 0.01534331776201725 0.042735885828733444 -0.10461649298667908
25 1 1.0351476669311523 -0.6686958074569702 -0.6465633511543274 -0.07371221482753754 -0.2822043299674988 -0.2235206961631775
26 1 -0.5571508407592773 -1.046724557876587 -1.4898170232772827 -0.6116470098495483 0.0511615052819252 0.25194546580314636
27 1 0.9525872468948364 0.989529013633728 0.02189651131629944 0.5008687973022461 -0.052781879901885986 -0.08008740842342377
28 1 -1.0073472261428833 -1.0396709442138672 -0.026088476181030273 -0.0838652029633522 0.4976077377796173 -0.029436834156513214
29 1 0.3204147517681122 1.3425580263137817 -0.8470351696014404 0.46309852600097656 -0.013751466758549213 0.26817747950553894
30 1 0.47114771604537964 0.02431797981262207 -0.030932605266571045 0.34900444746017456 0.00536126084625721 -0.10593307763338089
31 1 -0.04556465148925781 0.21097779273986816 0.8996679782867432 0.5788299441337585 -0.0781218484044075 -0.1515897512435913
32 1 -0.5377563238143921 1.7099660634994507 0.7169288396835327 0.5489635467529297 -0.011072607710957527 0.3051266372203827
33 1 -0.6266002655029297 1.78134024143219 -0.4305155277252197 0.4213557541370392 0.13270698487758636 0.6877620220184326
34 1 -0.6560233235359192 1.1699082851409912 -1.376787781715393 0.5308330059051514 0.5793371796607971 0.29461801052093506
35 1 -0.15499508380889893 0.3509379029273987 -0.8632124662399292 0.07439300417900085 0.08596841990947723 0.12620210647583008
36 1 -1.08016037940979 -0.3041384220123291 -0.8834629654884338 -0.2611294090747833 0.6255503296852112 0.15210436284542084
37 1 -0.06885206699371338 -0.7186311483383179 -0.5817846059799194 -0.2523745596408844 0.1266060471534729 -0.06839674711227417
38 1 -0.1501835584640503 0.9330735206604004 0.06445193290710449 0.4056091010570526 -0.044690802693367004 0.19193339347839355
ITEM: TIMESTEP
4
ITEM: NUMBER OF ATOMS
38
ITEM: BOX BOUNDS pp pp pp
-5.0 5.0
-5.0 5.0
-5.0 5.0
ITEM: ATOMS id type x y z vx vy vz
1 1 0.4800948202610016 0.5002598762512207 1.8121318817138672 0.31223517656326294 -0.11008336395025253 0.14407435059547424
2 1 -0.6123878955841064 -0.028530597686767578 0.030387163162231445 0.1372036188840866 0.19306190311908722 0.18439018726348877
3 1 0.558211088180542 -0.533482551574707 1.4343276023864746 0.25045475363731384 -0.17566703259944916 -0.15702123939990997
4 1 0.5880947113037109 -1.5670435428619385 0.9954501390457153 -0.3035859167575836 -0.15756960213184357 -0.0692661702632904
5 1 0.547439694404602 -1.5082119703292847 -0.11619201302528381 -0.41873201727867126 -0.06212492287158966 -0.05032539740204811
6 1 0.4656449556350708 -1.4313609600067139 -1.2339787483215332 -0.6166900992393494 0.02965312823653221 -0.04465040564537048
7 1 1.082932710647583 -0.735278308391571 0.47124505043029785 0.030763251706957817 -0.23188769817352295 -0.2455204427242279
8 1 -0.41048598289489746 -1.7538392543792725 -0.6169230937957764 -0.4523006081581116 0.10354821383953094 0.19194082915782928
9 1 -0.38575804233551025 -1.7909162044525146 0.49300187826156616 -0.623018205165863 0.26181861758232117 0.33301565051078796
10 1 -0.3292199373245239 -1.1616144180297852 1.4718197584152222 -0.19881613552570343 0.1058981642127037 0.0315609909594059
11 1 -0.4243242144584656 -0.12984202802181244 1.8606232404708862 -0.04237674921751022 0.31871894001960754 -0.24157443642616272
12 1 -0.9861441850662231 -0.43333643674850464 0.9580599665641785 0.03473212942481041 0.00635369960218668 -0.08565392345190048
13 1 -1.2212550640106201 0.6113412380218506 0.6043379306793213 -2.0497987270355225 -1.1106538772583008 -0.834808349609375
14 1 -0.6114094853401184 0.9070101976394653 1.4551422595977783 -1.2486562728881836 -0.9068722128868103 -1.4777748584747314
15 1 1.0525166988372803 0.2904324531555176 0.865442156791687 0.5261949300765991 -0.24921254813671112 0.0607021264731884
16 1 0.417173832654953 1.2028555870056152 0.9607336521148682 0.7527174949645996 -0.1306871920824051 0.25447797775268555
17 1 1.605918526649475 0.08642899990081787 -0.09060239791870117 0.02268216572701931 -0.3167972266674042 -0.08157777041196823
18 1 0.36458683013916016 1.9188305139541626 0.10867941379547119 0.5656953454017639 -0.05333208292722702 0.23160451650619507
19 1 -1.123062252998352 0.7646257877349854 -0.4821992814540863 0.37497177720069885 0.6023836731910706 0.13646148145198822
20 1 0.39751100540161133 -0.35774165391921997 -1.5027052164077759 -0.08156423270702362 0.08797410875558853 0.008231432177126408
21 1 -0.5923813581466675 0.034464120864868164 -1.8045282363891602 0.021493108943104744 0.09263542294502258 0.0924949124455452
22 1 0.2873983383178711 0.7363797426223755 -1.7860532999038696 0.13664847612380981 0.0382198728621006 0.13007426261901855
23 1 0.9446293711662292 0.4148522615432739 -0.9346511363983154 0.27673766016960144 -0.01656862534582615 -0.0837005227804184
24 1 -0.016286224126815796 -0.7870678305625916 0.5035006999969482 0.0109776696190238 0.04460102692246437 -0.0998162105679512
25 1 1.0344047546386719 -0.671473503112793 -0.6487542390823364 -0.07469108700752258 -0.27353066205978394 -0.21471887826919556
26 1 -0.5633183121681213 -1.0462173223495483 -1.4872722625732422 -0.6219018697738647 0.05011769011616707 0.25712835788726807
27 1 0.9575655460357666 0.9889496564865112 0.021166890859603882 0.4947177469730377 -0.0630781278014183 -0.0660027414560318
28 1 -1.0082496404647827 -1.0347542762756348 -0.026404738426208496 -0.09657099843025208 0.4858050048351288 -0.03383282572031021
29 1 0.32501453161239624 1.3424465656280518 -0.8443964719772339 0.4570763111114502 -0.008495481684803963 0.25965002179145813
30 1 0.47452330589294434 0.024332642555236816 -0.032027482986450195 0.32632917165756226 -0.002431279979646206 -0.11288204044103622
31 1 -0.039758920669555664 0.21023881435394287 0.8982481360435486 0.5819242596626282 -0.06959982961416245 -0.13274498283863068
32 1 -0.5321602821350098 1.7098388671875 0.7200713157653809 0.5699368715286255 -0.014855151064693928 0.3233512341976166
33 1 -0.6223984956741333 1.7827290296554565 -0.423694372177124 0.4187086224555969 0.1449505090713501 0.6768049597740173
34 1 -0.6507853865623474 1.1756892204284668 -1.3738160133361816 0.516948938369751 0.5770822167396545 0.3000575006008148
35 1 -0.15420961380004883 0.35182255506515503 -0.8619434833526611 0.08222422003746033 0.0911630243062973 0.12721805274486542
36 1 -1.0826911926269531 -0.2979140281677246 -0.8819248080253601 -0.2454873025417328 0.6192744374275208 0.15551050007343292
37 1 -0.07134091854095459 -0.7173448801040649 -0.582439124584198 -0.24551451206207275 0.13062499463558197 -0.06264650821685791
38 1 -0.1460636854171753 0.9327007532119751 0.06638193130493164 0.41798707842826843 -0.03017853945493698 0.19356536865234375
ITEM: TIMESTEP
5
ITEM: NUMBER OF ATOMS
38
ITEM: BOX BOUNDS pp pp pp
-5.0 5.0
-5.0 5.0
-5.0 5.0
ITEM: ATOMS id type x y z vx vy vz
1 1 0.48322734236717224 0.49909448623657227 1.8135508298873901 0.3140658736228943 -0.12293010205030441 0.13976866006851196
2 1 -0.6110306978225708 -0.02651524543762207 0.03221416473388672 0.13412076234817505 0.20975565910339355 0.1811794638633728
3 1 0.5606791973114014 -0.5352286696434021 1.432807445526123 0.24337920546531677 -0.17349258065223694 -0.1471775770187378
4 1 0.585066556930542 -1.568584680557251 0.9947385191917419 -0.302100270986557 -0.15069915354251862 -0.07304944843053818
5 1 0.543322741985321 -1.508819341659546 -0.11670920252799988 -0.4046279788017273 -0.05936749279499054 -0.05312319099903107
6 1 0.4595283269882202 -1.431050419807434 -1.23443603515625 -0.6068671941757202 0.03247908130288124 -0.04678718373179436
7 1 1.0832120180130005 -0.73759925365448 0.46883970499038696 0.025140777230262756 -0.23220831155776978 -0.23560012876987457
8 1 -0.41496676206588745 -1.7527925968170166 -0.6149803996086121 -0.4438376724720001 0.10570517927408218 0.19661274552345276
9 1 -0.3919661045074463 -1.788270354270935 0.49627411365509033 -0.6187166571617126 0.26749610900878906 0.3216627240180969
10 1 -0.3311171531677246 -1.1604669094085693 1.4721565246582031 -0.18066571652889252 0.12373019009828568 0.0358404815196991
11 1 -0.4247230589389801 -0.1266399770975113 1.8582030534744263 -0.03800150379538536 0.32197514176368713 -0.24260066449642181
12 1 -0.9858533143997192 -0.4332507252693176 0.9572232961654663 0.023225901648402214 0.010428301990032196 -0.08181563019752502
13 1 -1.2417051792144775 0.6000901460647583 0.5959123373031616 -2.0390357971191406 -1.1392652988433838 -0.8507072925567627
14 1 -0.6239434480667114 0.8979045152664185 1.4401967525482178 -1.2569769620895386 -0.9139213562011719 -1.511171579360962
15 1 1.0577380657196045 0.28793859481811523 0.8659979104995728 0.5181581974029541 -0.2497035712003708 0.050602786242961884
16 1 0.42468446493148804 1.2015560865402222 0.9631887078285217 0.7495549321174622 -0.12929946184158325 0.23686310648918152
17 1 1.6062068939208984 0.08325695991516113 -0.09145206212997437 0.034878719598054886 -0.3176100254058838 -0.08824338763952255
18 1 0.37022870779037476 1.9182883501052856 0.11101323366165161 0.5625137090682983 -0.05518114194273949 0.23514363169670105
19 1 -1.119336724281311 0.7705627083778381 -0.4808187782764435 0.36980322003364563 0.5851755738258362 0.14015299081802368
20 1 0.39675086736679077 -0.35685187578201294 -1.5025829076766968 -0.07037540525197983 0.09002342075109482 0.0161381084471941
21 1 -0.5921657085418701 0.03532421588897705 -1.8035777807235718 0.02172093465924263 0.07900404930114746 0.09732614457607269
22 1 0.28870218992233276 0.736773669719696 -1.7847390174865723 0.1244630515575409 0.04073704034090042 0.13269443809986115
23 1 0.947359561920166 0.4146755635738373 -0.9354820251464844 0.26951172947883606 -0.018664173781871796 -0.08243744820356369
24 1 -0.01619836688041687 -0.7866114974021912 0.5025241374969482 0.006594920065253973 0.04670175164937973 -0.0956253632903099
25 1 1.033657431602478 -0.6741701364517212 -0.6508588194847107 -0.07458420842885971 -0.2659969627857208 -0.20625819265842438
26 1 -0.569588840007782 -1.0457247495651245 -1.484671950340271 -0.6321643590927124 0.04827991873025894 0.2631418704986572
27 1 0.9624806642532349 0.9882675409317017 0.020573362708091736 0.48823994398117065 -0.07334348559379578 -0.052854571491479874
28 1 -1.0092778205871582 -1.0299525260925293 -0.0267658531665802 -0.10907084494829178 0.4747292995452881 -0.038410622626543045
29 1 0.32956066727638245 1.3423877954483032 -0.8418408632278442 0.45235130190849304 -0.003271520836278796 0.2515884041786194
30 1 0.4776812791824341 0.02427053451538086 -0.03318732976913452 0.3056367337703705 -0.009939921088516712 -0.11898200213909149
31 1 -0.03393411636352539 0.2095876932144165 0.897006630897522 0.582579493522644 -0.06062055379152298 -0.11585817486047745
32 1 -0.5263636112213135 1.7096590995788574 0.7233957648277283 0.5890965461730957 -0.021546300500631332 0.341500848531723
33 1 -0.6182308197021484 1.7842351198196411 -0.41697239875793457 0.4145941436290741 0.15603335201740265 0.6680448651313782
34 1 -0.6456813216209412 1.1814535856246948 -1.3707808256149292 0.5040163397789001 0.575991690158844 0.3072776794433594
35 1 -0.15336072444915771 0.35276228189468384 -0.8606740832328796 0.0872446745634079 0.0969289168715477 0.12641023099422455
36 1 -1.0850799083709717 -0.29175329208374023 -0.8803529143333435 -0.2326439470052719 0.6128893494606018 0.15884961187839508
37 1 -0.07376515865325928 -0.7160190343856812 -0.5830402374267578 -0.23947317898273468 0.13455697894096375 -0.05769830942153931
38 1 -0.1418313980102539 0.9324641227722168 0.06831538677215576 0.4280778169631958 -0.01742830127477646 0.1927778720855713
ITEM: TIMESTEP
6
ITEM: NUMBER OF ATOMS
38
ITEM: BOX BOUNDS pp pp pp
-5.0 5.0
-5.0 5.0
-5.0 5.0
ITEM: ATOMS id type x y z vx vy vz
1 1 0.48637136816978455 0.49780404567718506 1.8149280548095703 0.3145511746406555 -0.13501408696174622 0.13569791615009308
2 1 -0.6097078323364258 -0.024341940879821777 0.03401517868041992 0.13034719228744507 0.22460055351257324 0.1791549175977707
3 1 0.5630823373794556 -0.5369513034820557 1.4313803911209106 0.23743011057376862 -0.1709478348493576 -0.13840608298778534
4 1 0.5820514559745789 -1.570057988166809 0.9939897656440735 -0.3009933531284332 -0.14398853480815887 -0.07665716856718063
5 1 0.5393472909927368 -1.5093994140625 -0.11725495755672455 -0.3904699385166168 -0.05664721131324768 -0.056062258780002594
6 1 0.45350396633148193 -1.430709958076477 -1.2349141836166382 -0.5979645848274231 0.03569331765174866 -0.048851292580366135